102
 energy: -186.316870767878 gnorm: 0.000203812115 xtb: 6.7.1 (edcfbbe)
S           10.79849260073880        2.91260100320409        0.52867633926741
C            9.73897873201259        1.94720911711010       -0.27686176785006
N           10.09385493401537        1.08287064822758       -1.23856558731078
N            8.40588341600005        2.01691415317872        0.01482749289224
N            7.52933079501649        1.21239965033279       -0.60149265603955
C            6.28015120451515        1.28358832056047       -0.37951638847600
C            5.34297042975295        0.31004776361027       -1.02131684173650
C            4.48049395357401       -0.34558457624683        0.06880739794296
S            2.99450379508378       -1.04401742182387       -0.75553219927550
C            2.33741922128686       -2.06126996881520        0.62759079628573
C            1.34790289111753       -3.10259680989442        0.09392826496250
O            1.85858874247923       -3.78857427236129       -1.03363773743965
C            2.89956665496492       -4.61885342487280       -0.85496075715370
C            3.30427332831705       -5.23184675382683       -2.16189447544254
O            3.41674467724825       -4.81144033826033        0.21288367304033
C            0.02883251559084       -2.45591547852193       -0.34410066277879
O           -0.95621542495230       -3.47910938124081       -0.45115211145768
C           -1.12176774933791       -4.09525238578733       -1.63969537342030
C           -2.16464906116962       -5.16528549334475       -1.53750174781522
O           -0.52368609931915       -3.79078303655828       -2.63518020161520
C           -0.50280331159065       -1.40551637244181        0.64908503553286
O           -1.38778081502034       -0.52983616103262       -0.03087954179356
C           -2.74821543092359       -0.85387994050976        0.05724084286746
C           -3.49470824337964       -0.29242580958741       -1.17342379287126
O           -2.78603277050463       -0.54688584465945       -2.37246965200245
C           -2.98369217610716       -1.73205290547537       -2.97073955966363
C           -2.24939839562919       -1.81173835539355       -4.27214528127538
O           -3.67036014763668       -2.59958937634673       -2.49346198773001
C           -3.73253970900325        1.21414769360528       -1.10018786284107
O           -4.68831385611086        1.51159915165028       -2.11189468695069
C           -4.64002510622337        2.71099480150337       -2.71601989959350
C           -5.81301533319486        2.87119530094763       -3.63745427196819
O           -3.78579955263619        3.53160297885946       -2.51766023024182
C           -4.27652324938601        1.61535719028473        0.28010753818535
O           -4.24644854393535        3.02683983568863        0.41734952806191
C           -5.31526525884101        3.73416211617092        0.01094295274912
C           -5.01848502236135        5.20186489214292        0.07876620421659
O           -6.34488791021678        3.24068497055484       -0.36417057211829
C           -3.35884807012911        1.02758899760976        1.35756360128471
C           -3.86195954256401        1.34555327931342        2.76859429098229
O           -5.08151925900227        0.67032119607128        3.01876204712466
C           -5.00434752494469       -0.50280537089011        3.67328941940679
C           -6.35195952660728       -1.16710292584536        3.71733588530580
O           -3.99678442207092       -0.93500612868639        4.16161579863157
O           -3.31323867300221       -0.38886846593048        1.24407439731592
C            0.63079821568350       -0.53725949011672        1.21694893121631
C            0.19506204074159        0.24203631665000        2.46137525037809
O            1.02507599131901        1.37637337164040        2.64424306145094
C            0.62966963255416        2.52710158115195        2.06277547316898
C            1.67865694158489        3.58510944902258        2.21978530188694
O           -0.42574206673468        2.65197988229700        1.50151964268428
O            1.75443331900601       -1.29574990348671        1.62502244411700
C            4.12431550251478        0.70104955608220        1.14365227974631
O            4.22248210849333        2.00218534698141        0.59418774903470
C            5.60298183216719        2.21078484902733        0.62071258580512
O            6.00745575189643        1.85021998265686        1.93171985562089
C            5.17861096547572        0.75362936797952        2.28006682726799
H            9.38578427798013        0.50934234654911       -1.66699360834222
H           11.06400866991229        0.98603872597217       -1.47567993782848
H            8.13106738763546        2.64603843435683        0.76483368942360
H            5.89097660639565       -0.43571115758278       -1.59309061868208
H            4.67778095621300        0.85440108961012       -1.69843598575077
H            5.00266136134438       -1.19069529958055        0.52412347710756
H            3.19181304456956       -2.56571226357888        1.08923113143565
H            1.15265251087776       -3.82023907515234        0.90524141709052
H            4.06554411661657       -4.59922127419510       -2.61484815350745
H            3.72486082627699       -6.21878564862484       -1.99410319825829
H            2.44783667614484       -5.27338923155538       -2.82745546702495
H            0.18154930317345       -1.99111298278547       -1.32770998454075
H           -3.11234377696441       -4.72340529427502       -1.84469114437439
H           -1.92560599668115       -5.97807386143601       -2.21675168341021
H           -2.25070297262607       -5.52000379524433       -0.51586818592577
H           -1.02208500746587       -1.92274000060782        1.46598522603441
H           -2.88372454989997       -1.94412464700281        0.08320427266955
H           -4.47019931007610       -0.79785467284826       -1.22196393426551
H           -1.90716944260896       -0.82701729370878       -4.57135607547690
H           -1.39373915010225       -2.47372225503118       -4.13998127037221
H           -2.89706566162765       -2.24717545963385       -5.02835895866047
H           -2.80255381717887        1.76320174276847       -1.29630367596859
H           -6.01612275985687        1.93800123595258       -4.15336451754152
H           -6.67675682071493        3.11997207434307       -3.02194706746827
H           -5.62600180357257        3.67523040126318       -4.34223560015249
H           -5.30779567602948        1.25368886062089        0.39098704342993
H           -4.40659007067144        5.42192638106640        0.94763694204710
H           -4.44811447517883        5.45511413138969       -0.81436603070123
H           -5.94252671106977        5.77122974086346        0.09216441652041
H           -2.36473802972014        1.47280820771342        1.21713005499325
H           -3.12129347210817        1.01999757821076        3.50621265627845
H           -4.04957459733517        2.41627887586413        2.85622790495028
H           -6.43762156499408       -1.81571764542138        2.84753890764516
H           -6.43582015849720       -1.77432675422185        4.61360523295798
H           -7.13970205597143       -0.42170857617625        3.67687164567433
H            0.91930093304310        0.16798141049252        0.42153762412135
H            0.33121210528994       -0.38858305180294        3.34133017722081
H           -0.84649047847732        0.55257821989394        2.36553060499154
H            1.27379649737565        4.55134942736493        1.93651494254685
H            2.51800238721483        3.33580903441798        1.57050063302992
H            2.03752889242462        3.60330088490815        3.24495062255971
H            3.11852288561017        0.56437862720250        1.53461360935415
H            5.81993237134186        3.27012162047391        0.45054925690063
H            5.76997990569270       -0.16423634049243        2.34838177432779
H            4.71670870367862        0.96590115758390        3.24636677341564
