      -----------------------------------------------------------      
     |                   =====================                   |     
     |                           x T B                           |     
     |                   =====================                   |     
     |                         S. Grimme                         |     
     |          Mulliken Center for Theoretical Chemistry        |     
     |                    University of Bonn                     |     
      -----------------------------------------------------------      

   * xtb version 6.7.1 (edcfbbe) compiled by 'conda@c0858423619e' on 2025-09-04

   xtb is free software: you can redistribute it and/or modify it under
   the terms of the GNU Lesser General Public License as published by
   the Free Software Foundation, either version 3 of the License, or
   (at your option) any later version.
   
   xtb is distributed in the hope that it will be useful,
   but WITHOUT ANY WARRANTY; without even the implied warranty of
   MERCHANTABILITY or FITNESS FOR A PARTICULAR PURPOSE.  See the
   GNU Lesser General Public License for more details.
   
   Cite this work as:
   * C. Bannwarth, E. Caldeweyher, S. Ehlert, A. Hansen, P. Pracht,
     J. Seibert, S. Spicher, S. Grimme, WIREs Comput. Mol. Sci., 2020, 11,
     e01493. DOI: 10.1002/wcms.1493
   
   for GFN2-xTB:
   * C. Bannwarth, S. Ehlert and S. Grimme., J. Chem. Theory Comput., 2019,
     15, 1652-1671. DOI: 10.1021/acs.jctc.8b01176
   for GFN1-xTB:
   * S. Grimme, C. Bannwarth, P. Shushkov, J. Chem. Theory Comput., 2017,
     13, 1989-2009. DOI: 10.1021/acs.jctc.7b00118
   for GFN0-xTB:
   * P. Pracht, E. Caldeweyher, S. Ehlert, S. Grimme, ChemRxiv, 2019, preprint.
     DOI: 10.26434/chemrxiv.8326202.v1
   for GFN-FF:
   * S. Spicher and S. Grimme, Angew. Chem. Int. Ed., 2020, 59, 15665-15673.
     DOI: 10.1002/anie.202004239
   
   for ALPB and GBSA implicit solvation:
   * S. Ehlert, M. Stahn, S. Spicher, S. Grimme, J. Chem. Theory Comput.,
     2021, 17, 4250-4261. DOI: 10.1021/acs.jctc.1c00471
   
   for ddCOSMO and CPCM-X implicit solvation:
   * M. Stahn, S. Ehlert, S. Grimme, J. Phys. Chem. A,
     2023, XX, XXXX-XXXX. DOI: 10.1021/acs.jpca.3c04382
   
   for DFT-D4:
   * E. Caldeweyher, C. Bannwarth and S. Grimme, J. Chem. Phys., 2017,
     147, 034112. DOI: 10.1063/1.4993215
   * E. Caldeweyher, S. Ehlert, A. Hansen, H. Neugebauer, S. Spicher,
     C. Bannwarth and S. Grimme, J. Chem. Phys., 2019, 150, 154122.
     DOI: 10.1063/1.5090222
   * E. Caldeweyher, J.-M. Mewes, S. Ehlert and S. Grimme, Phys. Chem. Chem. Phys.
     2020, 22, 8499-8512. DOI: 10.1039/D0CP00502A
   
   for sTDA-xTB:
   * S. Grimme and C. Bannwarth, J. Chem. Phys., 2016, 145, 054103.
     DOI: 10.1063/1.4959605
   
   in the mass-spec context:
   * V. Asgeirsson, C. Bauer and S. Grimme, Chem. Sci., 2017, 8, 4879.
     DOI: 10.1039/c7sc00601b
   * J. Koopman and S. Grimme, ACS Omega 2019, 4, 12, 15120-15133.
     DOI: 10.1021/acsomega.9b02011
   
   for metadynamics refer to:
   * S. Grimme, J. Chem. Theory Comput., 2019, 155, 2847-2862
     DOI: 10.1021/acs.jctc.9b00143
   
   for SPH calculations refer to:
   * S. Spicher and S. Grimme, J. Chem. Theory Comput., 2021, 17, 1701-1714
     DOI: 10.1021/acs.jctc.0c01306
   
   for ONIOM refer to:
   * C. Plett, A. Katbashev, S. Ehlert, S. Grimme, M. Bursch,
     Phys. Chem. Chem. Phys., 2023, 25, 17860-17868. DOI: 10.1039/D3CP02178E
   
   for DIPRO refer to:
   * J. Kohn, N. Gildemeister, S. Grimme, D. Fazzi, A. Hansen,
     J. Chem. Phys., 2023, just accepted.
   
   for PTB refer to:
   * S. Grimme, M. Mueller, A. Hansen, J. Chem. Phys., 2023, 158, 124111.
     DOI: 10.1063/5.0137838
   
   with help from (in alphabetical order)
   P. Atkinson, C. Bannwarth, F. Bohle, G. Brandenburg, E. Caldeweyher
   M. Checinski, S. Dohm, S. Ehlert, S. Ehrlich, I. Gerasimov, C. Hölzer
   A. Katbashev, J. Kohn, J. Koopman, C. Lavigne, S. Lehtola, F. März, M. Müller,
   F. Musil, H. Neugebauer, J. Pisarek, C. Plett, P. Pracht, F. Pultar,
   J. Seibert, P. Shushkov, S. Spicher, M. Stahn, M. Steiner, T. Strunk,
   J. Stückrath, T. Rose, and J. Unsleber
   
 * started run on 2026/07/12 at 12:20:22.418     
   ID    Z sym.   atoms
    1   16 S      1, 9
    2    6 C      2, 6-8, 10, 11, 13, 14, 16, 18, 19, 21, 23, 24, 26, 27, 29,
                  31, 32, 34, 36, 37, 39, 40, 42, 43, 46, 47, 49, 50, 53, 55,
                  57
    3    7 N      3-5
    4    8 O      12, 15, 17, 20, 22, 25, 28, 30, 33, 35, 38, 41, 44, 45, 48,
                  51, 52, 54, 56
    5    1 H      58-102

           -------------------------------------------------
          |                Calculation Setup                |
           -------------------------------------------------

          program call               : /home/tomasz/miniforge3/envs/docking_env/bin/xtb input.xyz --gfn 2 --opt tight --chrg 0 --uhf 0
          coordinate file            : input.xyz
          omp threads                :                     8


           -------------------------------------------------
          |                 G F N 2 - x T B                 |
           -------------------------------------------------

        Reference                      10.1021/acs.jctc.8b01176
      * Hamiltonian:
        H0-scaling (s, p, d)           1.850000    2.230000    2.230000
        zeta-weighting                 0.500000
      * Dispersion:
        s8                             2.700000
        a1                             0.520000
        a2                             5.000000
        s9                             5.000000
      * Repulsion:
        kExp                           1.500000    1.000000
        rExp                           1.000000
      * Coulomb:
        alpha                          2.000000
        third order                    shell-resolved
        anisotropic                    true
        a3                             3.000000
        a5                             4.000000
        cn-shift                       1.200000
        cn-exp                         4.000000
        max-rad                        5.000000


          ...................................................
          :                      SETUP                      :
          :.................................................:
          :  # basis functions                 285          :
          :  # atomic orbitals                 283          :
          :  # shells                          161          :
          :  # electrons                       318          :
          :  max. iterations                   250          :
          :  Hamiltonian                  GFN2-xTB          :
          :  restarted?                      false          :
          :  GBSA solvation                  false          :
          :  PC potential                    false          :
          :  electronic temp.          300.0000000     K    :
          :  accuracy                    1.0000000          :
          :  -> integral cutoff          0.2500000E+02      :
          :  -> integral neglect         0.1000000E-07      :
          :  -> SCF convergence          0.1000000E-05 Eh   :
          :  -> wf. convergence          0.1000000E-03 e    :
          :  Broyden damping             0.4000000          :
          :  net charge                          0          :
          :  unpaired electrons                  0          :
          ...................................................

 iter      E             dE          RMSdq      gap      omega  full diag
   1   -187.3396705 -0.187340E+03  0.488E+00    2.99       0.0  T
   2   -187.7935898 -0.453919E+00  0.256E+00    2.20       1.0  T
   3   -187.8123817 -0.187919E-01  0.145E+00    1.59       1.0  T
   4   -187.8306550 -0.182733E-01  0.570E-01    1.99       1.0  T
   5   -187.8555655 -0.249105E-01  0.151E-01    1.60       1.0  T
   6   -187.8564295 -0.863995E-03  0.789E-02    1.68       1.0  T
   7   -187.8565305 -0.100982E-03  0.225E-02    1.68       1.0  T
   8   -187.8565353 -0.488512E-05  0.984E-03    1.68       1.0  T
   9   -187.8565358 -0.439922E-06  0.332E-03    1.68       3.0  T
  10   -187.8565360 -0.230298E-06  0.147E-03    1.68       6.7  T
  11   -187.8565360 -0.193352E-07  0.672E-04    1.68      14.7  T
  12   -187.8565360 -0.716378E-08  0.296E-04    1.68      33.4  T

   *** convergence criteria satisfied after 12 iterations ***

         #    Occupation            Energy/Eh            Energy/eV
      -------------------------------------------------------------
         1        2.0000           -0.7659658             -20.8430
       ...           ...                  ...                  ...
       153        2.0000           -0.4270269             -11.6200
       154        2.0000           -0.4255428             -11.5796
       155        2.0000           -0.4219630             -11.4822
       156        2.0000           -0.4081066             -11.1051
       157        2.0000           -0.3939176             -10.7190
       158        2.0000           -0.3673465              -9.9960
       159        2.0000           -0.3436461              -9.3511 (HOMO)
       160                         -0.2819356              -7.6719 (LUMO)
       161                         -0.2598684              -7.0714
       162                         -0.2579310              -7.0187
       163                         -0.2534833              -6.8976
       164                         -0.2508436              -6.8258
       ...                                ...                  ...
       283                          0.6167502              16.7826
      -------------------------------------------------------------
                  HL-Gap            0.0617105 Eh            1.6792 eV
             Fermi-level           -0.3127908 Eh           -8.5115 eV

 SCC (total)                   0 d,  0 h,  0 min,  0.224 sec
 SCC setup                      ...        0 min,  0.001 sec (  0.552%)
 Dispersion                     ...        0 min,  0.003 sec (  1.555%)
 classical contributions        ...        0 min,  0.001 sec (  0.511%)
 integral evaluation            ...        0 min,  0.013 sec (  5.980%)
 iterations                     ...        0 min,  0.159 sec ( 71.008%)
 molecular gradient             ...        0 min,  0.045 sec ( 19.848%)
 printout                       ...        0 min,  0.001 sec (  0.533%)

         :::::::::::::::::::::::::::::::::::::::::::::::::::::
         ::                     SUMMARY                     ::
         :::::::::::::::::::::::::::::::::::::::::::::::::::::
         :: total energy            -186.278868535236 Eh    ::
         :: gradient norm              0.160517223468 Eh/a0 ::
         :: HOMO-LUMO gap              1.679227307236 eV    ::
         ::.................................................::
         :: SCC energy              -187.853359052117 Eh    ::
         :: -> isotropic ES            0.442792446379 Eh    ::
         :: -> anisotropic ES         -0.007845587105 Eh    ::
         :: -> anisotropic XC          0.021601935340 Eh    ::
         :: -> dispersion             -0.119492027318 Eh    ::
         :: repulsion energy           1.574490516881 Eh    ::
         :: add. restraining           0.000000000000 Eh    ::
         :: total charge               0.000000000000 e     ::
         :::::::::::::::::::::::::::::::::::::::::::::::::::::

      ----------------------------------------------------------- 
     |                   =====================                   |
     |                        A N C O P T                        |
     |                   =====================                   |
     |               Approximate Normal Coordinate               |
     |                Rational Function Optimizer                |
      ----------------------------------------------------------- 
      ----------------------------------------------------------- 
     |                   =====================                   |
     |                        A N C O P T                        |
     |                   =====================                   |
     |               Approximate Normal Coordinate               |
     |                Rational Function Optimizer                |
      ----------------------------------------------------------- 

          ...................................................
          :                      SETUP                      :
          :.................................................:
          :   optimization level             tight          :
          :   max. optcycles                   510          :
          :   ANC micro-cycles                  20          :
          :   degrees of freedom               300          :
          :.................................................:
          :   RF solver                   davidson          :
          :   write xtbopt.log                true          :
          :   linear?                        false          :
          :   energy convergence         0.1000000E-05 Eh   :
          :   grad. convergence          0.8000000E-03 Eh/α :
          :   maxmium RF displ.          1.0000000          :
          :   Hlow (freq-cutoff)         0.1000000E-01      :
          :   Hmax (freq-cutoff)         5.0000000          :
          :   S6 in model hess.         20.0000000          :
          ...................................................

generating ANC from exact Hessian ...
Using Lindh-Hessian (1995)
 Shifting diagonal of input Hessian by    9.9694947773958913E-003
 Lowest  eigenvalues of input Hessian
    0.000000    0.000000    0.000000    0.000000    0.000000    0.000000
    0.010000    0.010003    0.010094    0.010128    0.010177    0.010229
    0.010318    0.010358    0.010382    0.010573    0.010682    0.010726
 Highest eigenvalues
    2.260992    2.262433    2.265110    2.266397    2.266975    2.268505


........................................................................
.............................. CYCLE    1 ..............................
........................................................................

 iter      E             dE          RMSdq      gap      omega  full diag
   1   -187.8565360 -0.187857E+03  0.109E-04    1.68       0.0  T
   2   -187.8565360 -0.165187E-09  0.658E-05    1.68     150.4  T
   3   -187.8565360 -0.628688E-10  0.453E-05    1.68     218.6  T
     SCC iter.                  ...        0 min,  0.047 sec
     gradient                   ...        0 min,  0.046 sec
 * total energy  :  -186.2788685 Eh     change       -0.2296446E-08 Eh
   gradient norm :     0.1605165 Eh/α   predicted     0.0000000E+00 (-100.00%)
   displ. norm   :     0.3362496 α      lambda       -0.3203208E-01
   maximum displ.:     0.0944580 α      in ANC's #60, #41, #102, ...

........................................................................
.............................. CYCLE    2 ..............................
........................................................................

 iter      E             dE          RMSdq      gap      omega  full diag
   1   -187.9559025 -0.187956E+03  0.169E-01    1.83       0.0  T
   2   -187.9562422 -0.339694E-03  0.102E-01    1.79       1.0  T
   3   -187.9562421  0.992172E-07  0.504E-02    1.81       1.0  T
   4   -187.9562906 -0.484849E-04  0.109E-02    1.80       1.0  T
   5   -187.9562966 -0.598605E-05  0.526E-03    1.80       1.9  T
   6   -187.9562978 -0.125678E-05  0.263E-03    1.80       3.8  T
   7   -187.9562980 -0.172613E-06  0.117E-03    1.80       8.4  T
   8   -187.9562980 -0.374652E-07  0.481E-04    1.80      20.6  T
   9   -187.9562980 -0.366168E-08  0.143E-04    1.80      69.4  T
     SCC iter.                  ...        0 min,  0.122 sec
     gradient                   ...        0 min,  0.046 sec
 * total energy  :  -186.3003324 Eh     change       -0.2146384E-01 Eh
   gradient norm :     0.0528400 Eh/α   predicted    -0.1784127E-01 ( -16.88%)
   displ. norm   :     0.3598518 α      lambda       -0.8670964E-02
   maximum displ.:     0.1259784 α      in ANC's #60, #41, #33, ...

........................................................................
.............................. CYCLE    3 ..............................
........................................................................

 iter      E             dE          RMSdq      gap      omega  full diag
   1   -187.9956608 -0.187996E+03  0.110E-01    1.89       0.0  T
   2   -187.9957343 -0.734938E-04  0.655E-02    1.88       1.0  T
   3   -187.9957109  0.233627E-04  0.304E-02    1.89       1.0  T
   4   -187.9957479 -0.369488E-04  0.813E-03    1.89       1.2  T
   5   -187.9957522 -0.430130E-05  0.322E-03    1.89       3.1  T
   6   -187.9957527 -0.495390E-06  0.133E-03    1.89       7.4  T
   7   -187.9957527 -0.380292E-07  0.613E-04    1.89      16.2  T
   8   -187.9957527 -0.757541E-08  0.248E-04    1.89      40.0  T
     SCC iter.                  ...        0 min,  0.100 sec
     gradient                   ...        0 min,  0.046 sec
 * total energy  :  -186.3057456 Eh     change       -0.5413218E-02 Eh
   gradient norm :     0.0213721 Eh/α   predicted    -0.4907306E-02 (  -9.35%)
   displ. norm   :     0.3253195 α      lambda       -0.2217792E-02
   maximum displ.:     0.1039437 α      in ANC's #33, #41, #60, ...

........................................................................
.............................. CYCLE    4 ..............................
........................................................................

 iter      E             dE          RMSdq      gap      omega  full diag
   1   -187.9996648 -0.188000E+03  0.637E-02    1.90       0.0  T
   2   -187.9996918 -0.270149E-04  0.382E-02    1.91       1.0  T
   3   -187.9996716  0.202086E-04  0.216E-02    1.90       1.0  T
   4   -187.9997002 -0.286562E-04  0.510E-03    1.91       1.9  T
   5   -187.9997017 -0.146847E-05  0.149E-03    1.91       6.6  T
   6   -187.9997017 -0.338717E-07  0.705E-04    1.91      14.1  T
   7   -187.9997017 -0.868164E-08  0.276E-04    1.91      35.8  T
     SCC iter.                  ...        0 min,  0.079 sec
     gradient                   ...        0 min,  0.042 sec
 * total energy  :  -186.3073285 Eh     change       -0.1582891E-02 Eh
   gradient norm :     0.0104730 Eh/α   predicted    -0.1226300E-02 ( -22.53%)
   displ. norm   :     0.3973158 α      lambda       -0.1430052E-02
   maximum displ.:     0.1253492 α      in ANC's #33, #17, #13, ...

........................................................................
.............................. CYCLE    5 ..............................
........................................................................

 iter      E             dE          RMSdq      gap      omega  full diag
   1   -188.0002232 -0.188000E+03  0.626E-02    1.91       0.0  T
   2   -188.0002370 -0.137650E-04  0.374E-02    1.93       1.0  T
   3   -188.0002109  0.260940E-04  0.223E-02    1.91       1.0  T
   4   -188.0002465 -0.356187E-04  0.352E-03    1.93       2.8  T
   5   -188.0002469 -0.392597E-06  0.150E-03    1.93       6.6  T
   6   -188.0002469 -0.232680E-07  0.722E-04    1.93      13.7  T
   7   -188.0002469 -0.143981E-07  0.288E-04    1.93      34.4  T
     SCC iter.                  ...        0 min,  0.101 sec
     gradient                   ...        0 min,  0.039 sec
 * total energy  :  -186.3083595 Eh     change       -0.1031022E-02 Eh
   gradient norm :     0.0095641 Eh/α   predicted    -0.8279069E-03 ( -19.70%)
   displ. norm   :     0.4319164 α      lambda       -0.1001809E-02
   maximum displ.:     0.1495115 α      in ANC's #17, #10, #13, ...

........................................................................
.............................. CYCLE    6 ..............................
........................................................................

 iter      E             dE          RMSdq      gap      omega  full diag
   1   -188.0000913 -0.188000E+03  0.628E-02    1.92       0.0  T
   2   -188.0000979 -0.657406E-05  0.372E-02    1.94       1.0  T
   3   -188.0000729  0.249900E-04  0.196E-02    1.92       1.0  T
   4   -188.0001038 -0.308609E-04  0.300E-03    1.94       3.3  T
   5   -188.0001039 -0.171397E-06  0.149E-03    1.94       6.7  T
   6   -188.0001040 -0.371851E-07  0.624E-04    1.93      15.9  T
   7   -188.0001040 -0.120110E-07  0.268E-04    1.94      37.0  T
     SCC iter.                  ...        0 min,  0.118 sec
     gradient                   ...        0 min,  0.035 sec
 * total energy  :  -186.3091273 Eh     change       -0.7677482E-03 Eh
   gradient norm :     0.0122480 Eh/α   predicted    -0.5943509E-03 ( -22.59%)
   displ. norm   :     0.4989453 α      lambda       -0.9538145E-03
   maximum displ.:     0.1823620 α      in ANC's #17, #10, #16, ...

........................................................................
.............................. CYCLE    7 ..............................
........................................................................

 iter      E             dE          RMSdq      gap      omega  full diag
   1   -188.0014534 -0.188001E+03  0.658E-02    1.93       0.0  T
   2   -188.0014621 -0.871761E-05  0.384E-02    1.94       1.0  T
   3   -188.0014475  0.146266E-04  0.155E-02    1.93       1.0  T
   4   -188.0014651 -0.175892E-04  0.382E-03    1.94       2.6  T
   5   -188.0014656 -0.510076E-06  0.161E-03    1.94       6.1  T
   6   -188.0014657 -0.546869E-07  0.654E-04    1.94      15.1  T
   7   -188.0014657 -0.122349E-07  0.292E-04    1.94      34.0  T
     SCC iter.                  ...        0 min,  0.095 sec
     gradient                   ...        0 min,  0.047 sec
 * total energy  :  -186.3098749 Eh     change       -0.7476544E-03 Eh
   gradient norm :     0.0103204 Eh/α   predicted    -0.5956338E-03 ( -20.33%)
   displ. norm   :     0.5270501 α      lambda       -0.8851949E-03
   maximum displ.:     0.1971105 α      in ANC's #17, #10, #16, ...

........................................................................
.............................. CYCLE    8 ..............................
........................................................................

 iter      E             dE          RMSdq      gap      omega  full diag
   1   -188.0028926 -0.188003E+03  0.698E-02    1.94       0.0  T
   2   -188.0029013 -0.878282E-05  0.402E-02    1.94       1.0  T
   3   -188.0028988  0.258088E-05  0.926E-03    1.94       1.1  T
   4   -188.0029022 -0.342023E-05  0.410E-03    1.94       2.4  T
   5   -188.0029029 -0.714956E-06  0.174E-03    1.94       5.7  T
   6   -188.0029030 -0.132092E-06  0.578E-04    1.94      17.1  T
   7   -188.0029030 -0.766070E-08  0.287E-04    1.94      34.5  T
     SCC iter.                  ...        0 min,  0.094 sec
     gradient                   ...        0 min,  0.036 sec
 * total energy  :  -186.3105772 Eh     change       -0.7023166E-03 Eh
   gradient norm :     0.0079409 Eh/α   predicted    -0.5655439E-03 ( -19.47%)
   displ. norm   :     0.5540608 α      lambda       -0.8074765E-03
   maximum displ.:     0.2058032 α      in ANC's #17, #10, #16, ...

........................................................................
.............................. CYCLE    9 ..............................
........................................................................

 iter      E             dE          RMSdq      gap      omega  full diag
   1   -188.0043141 -0.188004E+03  0.734E-02    1.94       0.0  T
   2   -188.0043228 -0.873001E-05  0.420E-02    1.94       1.0  T
   3   -188.0043228  0.201879E-07  0.758E-03    1.94       1.3  T
   4   -188.0043240 -0.115962E-05  0.329E-03    1.94       3.0  T
   5   -188.0043241 -0.158244E-06  0.156E-03    1.94       6.4  T
   6   -188.0043243 -0.145242E-06  0.568E-04    1.94      17.4  T
   7   -188.0043243 -0.106018E-07  0.277E-04    1.94      35.8  T
     SCC iter.                  ...        0 min,  0.093 sec
     gradient                   ...        0 min,  0.036 sec
 * total energy  :  -186.3112264 Eh     change       -0.6491832E-03 Eh
   gradient norm :     0.0082161 Eh/α   predicted    -0.5277335E-03 ( -18.71%)
   displ. norm   :     0.5862413 α      lambda       -0.7535288E-03
   maximum displ.:     0.2090736 α      in ANC's #17, #10, #26, ...

........................................................................
.............................. CYCLE   10 ..............................
........................................................................

 iter      E             dE          RMSdq      gap      omega  full diag
   1   -188.0035612 -0.188004E+03  0.811E-02    1.93       0.0  T
   2   -188.0035701 -0.883723E-05  0.466E-02    1.94       1.0  T
   3   -188.0035702 -0.159922E-06  0.773E-03    1.93       1.3  T
   4   -188.0035714 -0.116875E-05  0.344E-03    1.94       2.9  T
   5   -188.0035716 -0.168953E-06  0.167E-03    1.94       5.9  T
   6   -188.0035717 -0.169261E-06  0.614E-04    1.94      16.1  T
   7   -188.0035717 -0.106439E-07  0.307E-04    1.94      32.2  T
     SCC iter.                  ...        0 min,  0.092 sec
     gradient                   ...        0 min,  0.036 sec
 * total energy  :  -186.3118275 Eh     change       -0.6010796E-03 Eh
   gradient norm :     0.0095893 Eh/α   predicted    -0.5062512E-03 ( -15.78%)
   displ. norm   :     0.5666443 α      lambda       -0.6974077E-03
   maximum displ.:     0.1973807 α      in ANC's #10, #26, #17, ...

........................................................................
.............................. CYCLE   11 ..............................
........................................................................

 iter      E             dE          RMSdq      gap      omega  full diag
   1   -188.0051216 -0.188005E+03  0.748E-02    1.93       0.0  T
   2   -188.0051321 -0.104142E-04  0.429E-02    1.94       1.0  T
   3   -188.0051317  0.350823E-06  0.819E-03    1.93       1.2  T
   4   -188.0051333 -0.158785E-05  0.354E-03    1.94       2.8  T
   5   -188.0051336 -0.255990E-06  0.179E-03    1.93       5.5  T
   6   -188.0051337 -0.170398E-06  0.659E-04    1.93      15.0  T
   7   -188.0051337 -0.151201E-07  0.317E-04    1.93      31.3  T
     SCC iter.                  ...        0 min,  0.092 sec
     gradient                   ...        0 min,  0.036 sec
 * total energy  :  -186.3123430 Eh     change       -0.5154752E-03 Eh
   gradient norm :     0.0090485 Eh/α   predicted    -0.4606685E-03 ( -10.63%)
   displ. norm   :     0.5690345 α      lambda       -0.5725170E-03
   maximum displ.:     0.2076914 α      in ANC's #26, #10, #17, ...

........................................................................
.............................. CYCLE   12 ..............................
........................................................................

 iter      E             dE          RMSdq      gap      omega  full diag
   1   -188.0011997 -0.188001E+03  0.824E-02    1.93       0.0  T
   2   -188.0012159 -0.161965E-04  0.479E-02    1.94       1.0  T
   3   -188.0012130  0.287365E-05  0.107E-02    1.93       1.0  T
   4   -188.0012166 -0.355200E-05  0.501E-03    1.94       2.0  T
   5   -188.0012180 -0.146904E-05  0.194E-03    1.94       5.1  T
   6   -188.0012181 -0.911956E-07  0.740E-04    1.94      13.4  T
   7   -188.0012181 -0.147534E-07  0.374E-04    1.94      26.5  T
     SCC iter.                  ...        0 min,  0.092 sec
     gradient                   ...        0 min,  0.035 sec
 * total energy  :  -186.3127146 Eh     change       -0.3716103E-03 Eh
   gradient norm :     0.0105097 Eh/α   predicted    -0.3789551E-03 (   1.98%)
   displ. norm   :     0.3747943 α      lambda       -0.4668854E-03
   maximum displ.:     0.1242951 α      in ANC's #10, #11, #22, ...

........................................................................
.............................. CYCLE   13 ..............................
........................................................................

 iter      E             dE          RMSdq      gap      omega  full diag
   1   -188.0074376 -0.188007E+03  0.510E-02    1.94       0.0  T
   2   -188.0074450 -0.733984E-05  0.291E-02    1.94       1.0  T
   3   -188.0074445  0.470871E-06  0.711E-03    1.94       1.4  T
   4   -188.0074461 -0.162739E-05  0.265E-03    1.94       3.7  T
   5   -188.0074462 -0.779049E-07  0.125E-03    1.94       8.0  T
   6   -188.0074463 -0.605791E-07  0.598E-04    1.94      16.5  T
   7   -188.0074463 -0.162072E-07  0.258E-04    1.94      38.3  T
     SCC iter.                  ...        0 min,  0.091 sec
     gradient                   ...        0 min,  0.036 sec
 * total energy  :  -186.3129910 Eh     change       -0.2764505E-03 Eh
   gradient norm :     0.0074381 Eh/α   predicted    -0.2662532E-03 (  -3.69%)
   displ. norm   :     0.4878415 α      lambda       -0.4003047E-03
   maximum displ.:     0.1784614 α      in ANC's #10, #17, #26, ...

........................................................................
.............................. CYCLE   14 ..............................
........................................................................

 iter      E             dE          RMSdq      gap      omega  full diag
   1   -188.0034112 -0.188003E+03  0.654E-02    1.94       0.0  T
   2   -188.0034170 -0.584604E-05  0.379E-02    1.95       1.0  T
   3   -188.0034126  0.441964E-05  0.105E-02    1.94       1.0  T
   4   -188.0034183 -0.564948E-05  0.378E-03    1.95       2.6  T
   5   -188.0034187 -0.443650E-06  0.154E-03    1.95       6.4  T
   6   -188.0034188 -0.893107E-07  0.618E-04    1.95      16.0  T
   7   -188.0034188 -0.132302E-07  0.307E-04    1.95      32.2  T
     SCC iter.                  ...        0 min,  0.096 sec
     gradient                   ...        0 min,  0.042 sec
 * total energy  :  -186.3131883 Eh     change       -0.1973089E-03 Eh
   gradient norm :     0.0112261 Eh/α   predicted    -0.2477909E-03 (  25.59%)
   displ. norm   :     0.2444719 α      lambda       -0.3275593E-03
   maximum displ.:     0.0874078 α      in ANC's #10, #20, #19, ...

........................................................................
.............................. CYCLE   15 ..............................
........................................................................

 iter      E             dE          RMSdq      gap      omega  full diag
   1   -188.0046631 -0.188005E+03  0.380E-02    1.95       0.0  T
   2   -188.0046670 -0.390549E-05  0.219E-02    1.95       1.0  T
   3   -188.0046670 -0.493739E-07  0.434E-03    1.95       2.3  T
   4   -188.0046674 -0.390471E-06  0.163E-03    1.95       6.1  T
   5   -188.0046675 -0.318799E-07  0.713E-04    1.95      13.9  T
   6   -188.0046675 -0.117808E-07  0.306E-04    1.95      32.4  T
     SCC iter.                  ...        0 min,  0.110 sec
     gradient                   ...        0 min,  0.041 sec
 * total energy  :  -186.3134316 Eh     change       -0.2432691E-03 Eh
   gradient norm :     0.0072707 Eh/α   predicted    -0.1735798E-03 ( -28.65%)
   displ. norm   :     0.3552350 α      lambda       -0.3952967E-03
   maximum displ.:     0.1117760 α      in ANC's #10, #22, #27, ...

........................................................................
.............................. CYCLE   16 ..............................
........................................................................

 iter      E             dE          RMSdq      gap      omega  full diag
   1   -188.0089750 -0.188009E+03  0.510E-02    1.95       0.0  T
   2   -188.0089831 -0.816802E-05  0.290E-02    1.95       1.0  T
   3   -188.0089829  0.242333E-06  0.719E-03    1.95       1.4  T
   4   -188.0089840 -0.114258E-05  0.264E-03    1.95       3.7  T
   5   -188.0089841 -0.997075E-07  0.111E-03    1.95       8.9  T
   6   -188.0089842 -0.325496E-07  0.400E-04    1.95      24.8  T
   7   -188.0089842 -0.396707E-08  0.207E-04    1.95      47.7  T
     SCC iter.                  ...        0 min,  0.093 sec
     gradient                   ...        0 min,  0.042 sec
 * total energy  :  -186.3136839 Eh     change       -0.2522870E-03 Eh
   gradient norm :     0.0066864 Eh/α   predicted    -0.2225952E-03 ( -11.77%)
   displ. norm   :     0.4856549 α      lambda       -0.2822081E-03
   maximum displ.:     0.1742895 α      in ANC's #10, #22, #3, ...

........................................................................
.............................. CYCLE   17 ..............................
........................................................................

 iter      E             dE          RMSdq      gap      omega  full diag
   1   -188.0038480 -0.188004E+03  0.650E-02    1.95       0.0  T
   2   -188.0038522 -0.412924E-05  0.373E-02    1.95       1.0  T
   3   -188.0038522 -0.354123E-07  0.613E-03    1.94       1.6  T
   4   -188.0038530 -0.793045E-06  0.295E-03    1.95       3.4  T
   5   -188.0038532 -0.171085E-06  0.942E-04    1.95      10.5  T
   6   -188.0038532 -0.344460E-07  0.447E-04    1.95      22.2  T
     SCC iter.                  ...        0 min,  0.079 sec
     gradient                   ...        0 min,  0.041 sec
 * total energy  :  -186.3138637 Eh     change       -0.1797686E-03 Eh
   gradient norm :     0.0082068 Eh/α   predicted    -0.1743866E-03 (  -2.99%)
   displ. norm   :     0.3293151 α      lambda       -0.3069830E-03
   maximum displ.:     0.1103346 α      in ANC's #3, #19, #22, ...

........................................................................
.............................. CYCLE   18 ..............................
........................................................................

 iter      E             dE          RMSdq      gap      omega  full diag
   1   -188.0081831 -0.188008E+03  0.450E-02    1.95       0.0  T
   2   -188.0081909 -0.788090E-05  0.251E-02    1.94       1.0  T
   3   -188.0081907  0.272630E-06  0.693E-03    1.94       1.4  T
   4   -188.0081916 -0.905724E-06  0.269E-03    1.94       3.7  T
   5   -188.0081917 -0.171888E-06  0.109E-03    1.94       9.1  T
   6   -188.0081918 -0.241291E-07  0.372E-04    1.94      26.6  T
   7   -188.0081918 -0.480796E-08  0.189E-04    1.94      52.3  T
     SCC iter.                  ...        0 min,  0.091 sec
     gradient                   ...        0 min,  0.041 sec
 * total energy  :  -186.3140364 Eh     change       -0.1727270E-03 Eh
   gradient norm :     0.0081722 Eh/α   predicted    -0.1701382E-03 (  -1.50%)
   displ. norm   :     0.3797927 α      lambda       -0.2777204E-03
   maximum displ.:     0.1314558 α      in ANC's #3, #22, #10, ...

........................................................................
.............................. CYCLE   19 ..............................
........................................................................

 iter      E             dE          RMSdq      gap      omega  full diag
   1   -188.0064770 -0.188006E+03  0.478E-02    1.94       0.0  T
   2   -188.0064804 -0.333907E-05  0.273E-02    1.94       1.0  T
   3   -188.0064804 -0.401007E-07  0.492E-03    1.94       2.0  T
   4   -188.0064808 -0.425979E-06  0.229E-03    1.94       4.3  T
   5   -188.0064809 -0.114483E-06  0.810E-04    1.94      12.2  T
   6   -188.0064810 -0.227258E-07  0.306E-04    1.94      32.4  T
     SCC iter.                  ...        0 min,  0.087 sec
     gradient                   ...        0 min,  0.041 sec
 * total energy  :  -186.3142097 Eh     change       -0.1733169E-03 Eh
   gradient norm :     0.0076818 Eh/α   predicted    -0.1589008E-03 (  -8.32%)
   displ. norm   :     0.2364460 α      lambda       -0.1959837E-03
   maximum displ.:     0.0927970 α      in ANC's #3, #13, #29, ...

........................................................................
.............................. CYCLE   20 ..............................
........................................................................

 iter      E             dE          RMSdq      gap      omega  full diag
   1   -188.0073156 -0.188007E+03  0.279E-02    1.93       0.0  T
   2   -188.0073187 -0.309489E-05  0.157E-02    1.93       1.0  T
   3   -188.0073186  0.687270E-07  0.409E-03    1.93       2.4  T
   4   -188.0073190 -0.361640E-06  0.160E-03    1.93       6.2  T
   5   -188.0073190 -0.473851E-07  0.654E-04    1.93      15.1  T
   6   -188.0073190 -0.136936E-07  0.267E-04    1.93      37.1  T
     SCC iter.                  ...        0 min,  0.081 sec
     gradient                   ...        0 min,  0.041 sec
 * total energy  :  -186.3143524 Eh     change       -0.1427227E-03 Eh
   gradient norm :     0.0067822 Eh/α   predicted    -0.1034722E-03 ( -27.50%)
   displ. norm   :     0.3791508 α      lambda       -0.2669653E-03
   maximum displ.:     0.1548664 α      in ANC's #3, #29, #13, ...
 * RMSD in coord.:     0.6411429 α      energy gain  -0.3548389E-01 Eh

generating ANC from exact Hessian ...
Using Lindh-Hessian (1995)
 Shifting diagonal of input Hessian by    9.9767619145084280E-003
 Lowest  eigenvalues of input Hessian
    0.000000    0.000000    0.000000    0.000000    0.000000    0.000000
    0.010000    0.010009    0.010106    0.010143    0.010187    0.010255
    0.010334    0.010409    0.010417    0.010646    0.010727    0.010772
 Highest eigenvalues
    2.364262    2.364977    2.367056    2.368927    2.372020    2.375708


........................................................................
.............................. CYCLE   21 ..............................
........................................................................

 iter      E             dE          RMSdq      gap      omega  full diag
   1   -188.0086162 -0.188009E+03  0.438E-02    1.93       0.0  T
   2   -188.0086212 -0.504360E-05  0.247E-02    1.93       1.0  T
   3   -188.0086208  0.382784E-06  0.595E-03    1.93       1.7  T
   4   -188.0086218 -0.970174E-06  0.248E-03    1.93       4.0  T
   5   -188.0086219 -0.921046E-07  0.118E-03    1.93       8.4  T
   6   -188.0086220 -0.857115E-07  0.384E-04    1.93      25.8  T
   7   -188.0086220 -0.709977E-08  0.155E-04    1.93      63.9  T
     SCC iter.                  ...        0 min,  0.093 sec
     gradient                   ...        0 min,  0.040 sec
 * total energy  :  -186.3145238 Eh     change       -0.1714058E-03 Eh
   gradient norm :     0.0084198 Eh/α   predicted     0.0000000E+00 (-100.00%)
   displ. norm   :     0.0784218 α      lambda       -0.1807170E-03
   maximum displ.:     0.0221264 α      in ANC's #29, #20, #40, ...

........................................................................
.............................. CYCLE   22 ..............................
........................................................................

 iter      E             dE          RMSdq      gap      omega  full diag
   1   -188.0084392 -0.188008E+03  0.168E-02    1.93       0.0  T
   2   -188.0084408 -0.168477E-05  0.957E-03    1.93       1.0  T
   3   -188.0084407  0.181427E-06  0.362E-03    1.93       2.7  T
   4   -188.0084410 -0.326040E-06  0.117E-03    1.93       8.5  T
   5   -188.0084411 -0.647404E-07  0.417E-04    1.93      23.7  T
   6   -188.0084411 -0.138627E-08  0.228E-04    1.93      43.5  T
     SCC iter.                  ...        0 min,  0.078 sec
     gradient                   ...        0 min,  0.040 sec
 * total energy  :  -186.3146720 Eh     change       -0.1481968E-03 Eh
   gradient norm :     0.0038927 Eh/α   predicted    -0.9525024E-04 ( -35.73%)
   displ. norm   :     0.2037504 α      lambda       -0.2636458E-03
   maximum displ.:     0.0641205 α      in ANC's #29, #20, #40, ...

........................................................................
.............................. CYCLE   23 ..............................
........................................................................

 iter      E             dE          RMSdq      gap      omega  full diag
   1   -188.0075043 -0.188008E+03  0.372E-02    1.94       0.0  T
   2   -188.0075088 -0.455946E-05  0.213E-02    1.94       1.0  T
   3   -188.0075080  0.848133E-06  0.666E-03    1.94       1.5  T
   4   -188.0075094 -0.144984E-05  0.209E-03    1.94       4.7  T
   5   -188.0075096 -0.142565E-06  0.763E-04    1.94      13.0  T
   6   -188.0075096 -0.608134E-08  0.313E-04    1.94      31.6  T
     SCC iter.                  ...        0 min,  0.097 sec
     gradient                   ...        0 min,  0.040 sec
 * total energy  :  -186.3148522 Eh     change       -0.1802171E-03 Eh
   gradient norm :     0.0046774 Eh/α   predicted    -0.1372975E-03 ( -23.82%)
   displ. norm   :     0.2222219 α      lambda       -0.1709897E-03
   maximum displ.:     0.0806500 α      in ANC's #29, #20, #30, ...

........................................................................
.............................. CYCLE   24 ..............................
........................................................................

 iter      E             dE          RMSdq      gap      omega  full diag
   1   -188.0064198 -0.188006E+03  0.375E-02    1.94       0.0  T
   2   -188.0064217 -0.186152E-05  0.216E-02    1.94       1.0  T
   3   -188.0064212  0.518862E-06  0.480E-03    1.94       2.1  T
   4   -188.0064221 -0.956791E-06  0.171E-03    1.94       5.8  T
   5   -188.0064222 -0.533863E-07  0.640E-04    1.94      15.5  T
   6   -188.0064222 -0.983678E-08  0.259E-04    1.94      38.3  T
     SCC iter.                  ...        0 min,  0.091 sec
     gradient                   ...        0 min,  0.040 sec
 * total energy  :  -186.3149876 Eh     change       -0.1353907E-03 Eh
   gradient norm :     0.0072627 Eh/α   predicted    -0.8971715E-04 ( -33.73%)
   displ. norm   :     0.3711159 α      lambda       -0.2674856E-03
   maximum displ.:     0.1491698 α      in ANC's #29, #30, #20, ...

........................................................................
.............................. CYCLE   25 ..............................
........................................................................

 iter      E             dE          RMSdq      gap      omega  full diag
   1   -188.0044387 -0.188004E+03  0.591E-02    1.94       0.0  T
   2   -188.0044415 -0.280106E-05  0.341E-02    1.94       1.0  T
   3   -188.0044409  0.530475E-06  0.597E-03    1.94       1.7  T
   4   -188.0044423 -0.139303E-05  0.254E-03    1.94       3.9  T
   5   -188.0044424 -0.841980E-07  0.993E-04    1.94      10.0  T
   6   -188.0044425 -0.486174E-07  0.407E-04    1.94      24.4  T
     SCC iter.                  ...        0 min,  0.078 sec
     gradient                   ...        0 min,  0.039 sec
 * total energy  :  -186.3151730 Eh     change       -0.1854102E-03 Eh
   gradient norm :     0.0093052 Eh/α   predicted    -0.1521688E-03 ( -17.93%)
   displ. norm   :     0.2430932 α      lambda       -0.2040036E-03
   maximum displ.:     0.0995507 α      in ANC's #29, #3, #30, ...

........................................................................
.............................. CYCLE   26 ..............................
........................................................................

 iter      E             dE          RMSdq      gap      omega  full diag
   1   -188.0055333 -0.188006E+03  0.358E-02    1.94       0.0  T
   2   -188.0055354 -0.202761E-05  0.206E-02    1.94       1.0  T
   3   -188.0055353  0.941255E-07  0.353E-03    1.94       2.8  T
   4   -188.0055356 -0.339644E-06  0.164E-03    1.94       6.0  T
   5   -188.0055357 -0.827481E-07  0.793E-04    1.94      12.5  T
   6   -188.0055357 -0.322880E-07  0.286E-04    1.94      34.6  T
     SCC iter.                  ...        0 min,  0.080 sec
     gradient                   ...        0 min,  0.040 sec
 * total energy  :  -186.3153282 Eh     change       -0.1551668E-03 Eh
   gradient norm :     0.0079400 Eh/α   predicted    -0.1080379E-03 ( -30.37%)
   displ. norm   :     0.2431400 α      lambda       -0.2816266E-03
   maximum displ.:     0.0837374 α      in ANC's #29, #3, #11, ...

........................................................................
.............................. CYCLE   27 ..............................
........................................................................

 iter      E             dE          RMSdq      gap      omega  full diag
   1   -188.0097702 -0.188010E+03  0.354E-02    1.94       0.0  T
   2   -188.0097762 -0.606417E-05  0.203E-02    1.93       1.0  T
   3   -188.0097758  0.410578E-06  0.620E-03    1.94       1.6  T
   4   -188.0097767 -0.910788E-06  0.205E-03    1.93       4.8  T
   5   -188.0097769 -0.147231E-06  0.774E-04    1.93      12.8  T
   6   -188.0097769 -0.853967E-08  0.319E-04    1.93      31.1  T
     SCC iter.                  ...        0 min,  0.081 sec
     gradient                   ...        0 min,  0.039 sec
 * total energy  :  -186.3155196 Eh     change       -0.1913661E-03 Eh
   gradient norm :     0.0052804 Eh/α   predicted    -0.1491390E-03 ( -22.07%)
   displ. norm   :     0.3917921 α      lambda       -0.2142478E-03
   maximum displ.:     0.1424767 α      in ANC's #29, #3, #21, ...

........................................................................
.............................. CYCLE   28 ..............................
........................................................................

 iter      E             dE          RMSdq      gap      omega  full diag
   1   -188.0065437 -0.188007E+03  0.562E-02    1.93       0.0  T
   2   -188.0065496 -0.588405E-05  0.326E-02    1.93       1.0  T
   3   -188.0065489  0.622820E-06  0.624E-03    1.93       1.6  T
   4   -188.0065505 -0.159930E-05  0.222E-03    1.93       4.5  T
   5   -188.0065506 -0.671015E-07  0.113E-03    1.93       8.8  T
   6   -188.0065507 -0.479381E-07  0.505E-04    1.93      19.6  T
   7   -188.0065507 -0.105815E-07  0.214E-04    1.93      46.2  T
     SCC iter.                  ...        0 min,  0.133 sec
     gradient                   ...        0 min,  0.042 sec
 * total energy  :  -186.3156393 Eh     change       -0.1197202E-03 Eh
   gradient norm :     0.0094659 Eh/α   predicted    -0.1236067E-03 (   3.25%)
   displ. norm   :     0.1993975 α      lambda       -0.2480117E-03
   maximum displ.:     0.0816565 α      in ANC's #3, #11, #28, ...

........................................................................
.............................. CYCLE   29 ..............................
........................................................................

 iter      E             dE          RMSdq      gap      omega  full diag
   1   -188.0095483 -0.188010E+03  0.282E-02    1.93       0.0  T
   2   -188.0095525 -0.420151E-05  0.160E-02    1.93       1.0  T
   3   -188.0095520  0.510057E-06  0.536E-03    1.93       1.8  T
   4   -188.0095528 -0.832818E-06  0.191E-03    1.93       5.2  T
   5   -188.0095530 -0.193253E-06  0.771E-04    1.93      12.8  T
   6   -188.0095530 -0.147203E-07  0.366E-04    1.93      27.0  T
     SCC iter.                  ...        0 min,  0.106 sec
     gradient                   ...        0 min,  0.041 sec
 * total energy  :  -186.3157999 Eh     change       -0.1606356E-03 Eh
   gradient norm :     0.0071373 Eh/α   predicted    -0.1290417E-03 ( -19.67%)
   displ. norm   :     0.3249643 α      lambda       -0.1999771E-03
   maximum displ.:     0.1292866 α      in ANC's #3, #29, #11, ...

........................................................................
.............................. CYCLE   30 ..............................
........................................................................

 iter      E             dE          RMSdq      gap      omega  full diag
   1   -188.0078154 -0.188008E+03  0.382E-02    1.93       0.0  T
   2   -188.0078174 -0.193315E-05  0.221E-02    1.93       1.0  T
   3   -188.0078166  0.724818E-06  0.438E-03    1.93       2.3  T
   4   -188.0078176 -0.976922E-06  0.208E-03    1.93       4.8  T
   5   -188.0078178 -0.216758E-06  0.820E-04    1.93      12.1  T
   6   -188.0078179 -0.201038E-07  0.283E-04    1.93      35.0  T
     SCC iter.                  ...        0 min,  0.088 sec
     gradient                   ...        0 min,  0.042 sec
 * total energy  :  -186.3159588 Eh     change       -0.1588148E-03 Eh
   gradient norm :     0.0070772 Eh/α   predicted    -0.1105479E-03 ( -30.39%)
   displ. norm   :     0.3851794 α      lambda       -0.2851060E-03
   maximum displ.:     0.1639368 α      in ANC's #3, #29, #11, ...

........................................................................
.............................. CYCLE   31 ..............................
........................................................................

 iter      E             dE          RMSdq      gap      omega  full diag
   1   -188.0071362 -0.188007E+03  0.448E-02    1.93       0.0  T
   2   -188.0071406 -0.438755E-05  0.257E-02    1.93       1.0  T
   3   -188.0071399  0.742195E-06  0.562E-03    1.93       1.8  T
   4   -188.0071410 -0.110324E-05  0.264E-03    1.93       3.8  T
   5   -188.0071413 -0.334473E-06  0.115E-03    1.93       8.6  T
   6   -188.0071414 -0.541190E-07  0.404E-04    1.93      24.5  T
   7   -188.0071414 -0.429068E-08  0.185E-04    1.93      53.6  T
     SCC iter.                  ...        0 min,  0.106 sec
     gradient                   ...        0 min,  0.050 sec
 * total energy  :  -186.3161516 Eh     change       -0.1928912E-03 Eh
   gradient norm :     0.0055985 Eh/α   predicted    -0.1637067E-03 ( -15.13%)
   displ. norm   :     0.3362536 α      lambda       -0.1441816E-03
   maximum displ.:     0.1461067 α      in ANC's #3, #29, #11, ...

........................................................................
.............................. CYCLE   32 ..............................
........................................................................

 iter      E             dE          RMSdq      gap      omega  full diag
   1   -188.0048912 -0.188005E+03  0.369E-02    1.93       0.0  T
   2   -188.0048929 -0.170458E-05  0.211E-02    1.93       1.0  T
   3   -188.0048926  0.245884E-06  0.393E-03    1.93       2.5  T
   4   -188.0048931 -0.520442E-06  0.195E-03    1.93       5.1  T
   5   -188.0048933 -0.128244E-06  0.867E-04    1.93      11.4  T
   6   -188.0048933 -0.396403E-07  0.282E-04    1.93      35.1  T
     SCC iter.                  ...        0 min,  0.122 sec
     gradient                   ...        0 min,  0.046 sec
 * total energy  :  -186.3162403 Eh     change       -0.8869616E-04 Eh
   gradient norm :     0.0066440 Eh/α   predicted    -0.8024851E-04 (  -9.52%)
   displ. norm   :     0.2931333 α      lambda       -0.2570285E-03
   maximum displ.:     0.1266639 α      in ANC's #3, #19, #2, ...

........................................................................
.............................. CYCLE   33 ..............................
........................................................................

 iter      E             dE          RMSdq      gap      omega  full diag
   1   -188.0108768 -0.188011E+03  0.450E-02    1.93       0.0  T
   2   -188.0108855 -0.863855E-05  0.252E-02    1.93       1.0  T
   3   -188.0108855 -0.115033E-07  0.648E-03    1.93       1.5  T
   4   -188.0108863 -0.769381E-06  0.251E-03    1.93       3.9  T
   5   -188.0108864 -0.114115E-06  0.125E-03    1.93       7.9  T
   6   -188.0108864 -0.657189E-07  0.497E-04    1.93      19.9  T
   7   -188.0108865 -0.136002E-07  0.203E-04    1.93      48.7  T
     SCC iter.                  ...        0 min,  0.103 sec
     gradient                   ...        0 min,  0.046 sec
 * total energy  :  -186.3162467 Eh     change       -0.6365093E-05 Eh
   gradient norm :     0.0095597 Eh/α   predicted    -0.1395633E-03 (2092.64%)
   displ. norm   :     0.1289418 α      lambda       -0.2246007E-03
   maximum displ.:     0.0497445 α      in ANC's #3, #27, #29, ...

........................................................................
.............................. CYCLE   34 ..............................
........................................................................

 iter      E             dE          RMSdq      gap      omega  full diag
   1   -188.0088215 -0.188009E+03  0.208E-02    1.93       0.0  T
   2   -188.0088245 -0.300181E-05  0.119E-02    1.93       1.0  T
   3   -188.0088246 -0.634534E-07  0.357E-03    1.93       2.8  T
   4   -188.0088247 -0.153512E-06  0.981E-04    1.93      10.1  T
   5   -188.0088247 -0.219338E-07  0.499E-04    1.93      19.8  T
     SCC iter.                  ...        0 min,  0.074 sec
     gradient                   ...        0 min,  0.046 sec
 * total energy  :  -186.3163659 Eh     change       -0.1192265E-03 Eh
   gradient norm :     0.0049076 Eh/α   predicted    -0.1141674E-03 (  -4.24%)
   displ. norm   :     0.0847150 α      lambda       -0.7150618E-04
   maximum displ.:     0.0301596 α      in ANC's #3, #29, #2, ...

........................................................................
.............................. CYCLE   35 ..............................
........................................................................

 iter      E             dE          RMSdq      gap      omega  full diag
   1   -188.0072143 -0.188007E+03  0.154E-02    1.93       0.0  T
   2   -188.0072162 -0.195645E-05  0.883E-03    1.93       1.1  T
   3   -188.0072162  0.243050E-07  0.311E-03    1.93       3.2  T
   4   -188.0072164 -0.183013E-06  0.775E-04    1.93      12.8  T
   5   -188.0072164 -0.170957E-07  0.382E-04    1.93      25.9  T
     SCC iter.                  ...        0 min,  0.075 sec
     gradient                   ...        0 min,  0.052 sec
 * total energy  :  -186.3163945 Eh     change       -0.2856769E-04 Eh
   gradient norm :     0.0044441 Eh/α   predicted    -0.3601403E-04 (  26.07%)
   displ. norm   :     0.0715858 α      lambda       -0.6287883E-04
   maximum displ.:     0.0299159 α      in ANC's #3, #9, #2, ...

........................................................................
.............................. CYCLE   36 ..............................
........................................................................

 iter      E             dE          RMSdq      gap      omega  full diag
   1   -188.0090494 -0.188009E+03  0.120E-02    1.93       0.0  T
   2   -188.0090503 -0.826290E-06  0.691E-03    1.93       1.4  T
   3   -188.0090502  0.466920E-07  0.215E-03    1.93       4.6  T
   4   -188.0090503 -0.123443E-06  0.539E-04    1.93      18.4  T
   5   -188.0090503 -0.931169E-08  0.249E-04    1.93      39.8  T
     SCC iter.                  ...        0 min,  0.076 sec
     gradient                   ...        0 min,  0.047 sec
 * total energy  :  -186.3164394 Eh     change       -0.4493423E-04 Eh
   gradient norm :     0.0027520 Eh/α   predicted    -0.3160137E-04 ( -29.67%)
   displ. norm   :     0.2528422 α      lambda       -0.8117573E-04
   maximum displ.:     0.1341129 α      in ANC's #3, #2, #9, ...

........................................................................
.............................. CYCLE   37 ..............................
........................................................................

 iter      E             dE          RMSdq      gap      omega  full diag
   1   -188.0092407 -0.188009E+03  0.236E-02    1.93       0.0  T
   2   -188.0092418 -0.112046E-05  0.134E-02    1.93       1.0  T
   3   -188.0092417  0.162537E-06  0.321E-03    1.93       3.1  T
   4   -188.0092420 -0.319454E-06  0.131E-03    1.93       7.6  T
   5   -188.0092420 -0.396917E-07  0.448E-04    1.93      22.1  T
   6   -188.0092420 -0.453011E-08  0.174E-04    1.93      57.0  T
     SCC iter.                  ...        0 min,  0.082 sec
     gradient                   ...        0 min,  0.045 sec
 * total energy  :  -186.3164983 Eh     change       -0.5890722E-04 Eh
   gradient norm :     0.0035236 Eh/α   predicted    -0.4318947E-04 ( -26.68%)
   displ. norm   :     0.3117251 α      lambda       -0.8249431E-04
   maximum displ.:     0.1643503 α      in ANC's #3, #2, #9, ...

........................................................................
.............................. CYCLE   38 ..............................
........................................................................

 iter      E             dE          RMSdq      gap      omega  full diag
   1   -188.0089576 -0.188009E+03  0.293E-02    1.93       0.0  T
   2   -188.0089588 -0.118533E-05  0.169E-02    1.93       1.0  T
   3   -188.0089585  0.289150E-06  0.372E-03    1.93       2.7  T
   4   -188.0089591 -0.526614E-06  0.141E-03    1.93       7.0  T
   5   -188.0089591 -0.343426E-07  0.488E-04    1.93      20.3  T
   6   -188.0089591 -0.716190E-08  0.180E-04    1.93      55.1  T
     SCC iter.                  ...        0 min,  0.079 sec
     gradient                   ...        0 min,  0.045 sec
 * total energy  :  -186.3165573 Eh     change       -0.5893272E-04 Eh
   gradient norm :     0.0047099 Eh/α   predicted    -0.4525849E-04 ( -23.20%)
   displ. norm   :     0.3194983 α      lambda       -0.9166904E-04
   maximum displ.:     0.1661945 α      in ANC's #3, #2, #9, ...

........................................................................
.............................. CYCLE   39 ..............................
........................................................................

 iter      E             dE          RMSdq      gap      omega  full diag
   1   -188.0087746 -0.188009E+03  0.307E-02    1.93       0.0  T
   2   -188.0087768 -0.224270E-05  0.178E-02    1.94       1.0  T
   3   -188.0087767  0.142793E-06  0.374E-03    1.93       2.6  T
   4   -188.0087770 -0.389170E-06  0.143E-03    1.94       6.9  T
   5   -188.0087771 -0.455358E-07  0.605E-04    1.93      16.4  T
   6   -188.0087771 -0.870591E-08  0.252E-04    1.93      39.3  T
     SCC iter.                  ...        0 min,  0.076 sec
     gradient                   ...        0 min,  0.053 sec
 * total energy  :  -186.3166068 Eh     change       -0.4955232E-04 Eh
   gradient norm :     0.0040720 Eh/α   predicted    -0.5051459E-04 (   1.94%)
   displ. norm   :     0.3117362 α      lambda       -0.6204892E-04
   maximum displ.:     0.1616417 α      in ANC's #3, #2, #9, ...

........................................................................
.............................. CYCLE   40 ..............................
........................................................................

 iter      E             dE          RMSdq      gap      omega  full diag
   1   -188.0061731 -0.188006E+03  0.290E-02    1.93       0.0  T
   2   -188.0061742 -0.114518E-05  0.168E-02    1.93       1.0  T
   3   -188.0061743 -0.587385E-07  0.245E-03    1.93       4.0  T
   4   -188.0061744 -0.839259E-07  0.117E-03    1.93       8.5  T
   5   -188.0061744 -0.296348E-07  0.592E-04    1.93      16.7  T
   6   -188.0061744 -0.216044E-07  0.188E-04    1.93      52.5  T
     SCC iter.                  ...        0 min,  0.083 sec
     gradient                   ...        0 min,  0.050 sec
 * total energy  :  -186.3166294 Eh     change       -0.2257329E-04 Eh
   gradient norm :     0.0036235 Eh/α   predicted    -0.3404155E-04 (  50.80%)
   displ. norm   :     0.0842896 α      lambda       -0.5853741E-04
   maximum displ.:     0.0286468 α      in ANC's #11, #25, #19, ...

........................................................................
.............................. CYCLE   41 ..............................
........................................................................

 iter      E             dE          RMSdq      gap      omega  full diag
   1   -188.0094624 -0.188009E+03  0.141E-02    1.93       0.0  T
   2   -188.0094635 -0.106141E-05  0.782E-03    1.93       1.3  T
   3   -188.0094634  0.474380E-07  0.249E-03    1.93       4.0  T
   4   -188.0094636 -0.138482E-06  0.950E-04    1.93      10.4  T
   5   -188.0094636 -0.305208E-07  0.367E-04    1.93      27.0  T
     SCC iter.                  ...        0 min,  0.088 sec
     gradient                   ...        0 min,  0.045 sec
 * total energy  :  -186.3166582 Eh     change       -0.2878699E-04 Eh
   gradient norm :     0.0030365 Eh/α   predicted    -0.2947985E-04 (   2.41%)
   displ. norm   :     0.0726415 α      lambda       -0.2951855E-04
   maximum displ.:     0.0245296 α      in ANC's #9, #2, #6, ...

........................................................................
.............................. CYCLE   42 ..............................
........................................................................

 iter      E             dE          RMSdq      gap      omega  full diag
   1   -188.0098442 -0.188010E+03  0.933E-03    1.93       0.0  T
   2   -188.0098444 -0.241670E-06  0.533E-03    1.93       1.9  T
   3   -188.0098444  0.127139E-07  0.126E-03    1.93       7.9  T
   4   -188.0098445 -0.383276E-07  0.514E-04    1.93      19.3  T
   5   -188.0098445 -0.740360E-08  0.205E-04    1.93      48.3  T
     SCC iter.                  ...        0 min,  0.066 sec
     gradient                   ...        0 min,  0.045 sec
 * total energy  :  -186.3166788 Eh     change       -0.2064225E-04 Eh
   gradient norm :     0.0019947 Eh/α   predicted    -0.1483916E-04 ( -28.11%)
   displ. norm   :     0.2288262 α      lambda       -0.3182012E-04
   maximum displ.:     0.0808859 α      in ANC's #9, #2, #3, ...
 * RMSD in coord.:     0.4078040 α      energy gain  -0.2326400E-02 Eh

generating ANC from exact Hessian ...
Using Lindh-Hessian (1995)
 Shifting diagonal of input Hessian by    9.9867924540687492E-003
 Lowest  eigenvalues of input Hessian
    0.000000    0.000000    0.000000    0.000000    0.000000    0.000000
    0.010000    0.010020    0.010096    0.010148    0.010202    0.010268
    0.010334    0.010410    0.010444    0.010510    0.010673    0.010736
 Highest eigenvalues
    2.355619    2.365502    2.368374    2.370310    2.372153    2.374251


........................................................................
.............................. CYCLE   43 ..............................
........................................................................

 iter      E             dE          RMSdq      gap      omega  full diag
   1   -188.0094171 -0.188009E+03  0.259E-02    1.93       0.0  T
   2   -188.0094182 -0.113544E-05  0.149E-02    1.93       1.0  T
   3   -188.0094182  0.429752E-07  0.269E-03    1.93       3.7  T
   4   -188.0094183 -0.169815E-06  0.124E-03    1.93       8.0  T
   5   -188.0094184 -0.477840E-07  0.571E-04    1.93      17.3  T
   6   -188.0094184 -0.138498E-07  0.214E-04    1.93      46.3  T
     SCC iter.                  ...        0 min,  0.077 sec
     gradient                   ...        0 min,  0.046 sec
 * total energy  :  -186.3167022 Eh     change       -0.2339991E-04 Eh
   gradient norm :     0.0030059 Eh/α   predicted     0.0000000E+00 (-100.00%)
   displ. norm   :     0.0218125 α      lambda       -0.1853434E-04
   maximum displ.:     0.0066764 α      in ANC's #6, #1, #31, ...

........................................................................
.............................. CYCLE   44 ..............................
........................................................................

 iter      E             dE          RMSdq      gap      omega  full diag
   1   -188.0095419 -0.188010E+03  0.428E-03    1.93       0.0  T
   2   -188.0095421 -0.145563E-06  0.243E-03    1.93       4.1  T
   3   -188.0095421  0.233538E-08  0.875E-04    1.93      11.3  T
   4   -188.0095421 -0.127287E-07  0.285E-04    1.93      34.8  T
     SCC iter.                  ...        0 min,  0.053 sec
     gradient                   ...        0 min,  0.045 sec
 * total energy  :  -186.3167164 Eh     change       -0.1413001E-04 Eh
   gradient norm :     0.0013089 Eh/α   predicted    -0.9564201E-05 ( -32.31%)
   displ. norm   :     0.0695362 α      lambda       -0.1572312E-04
   maximum displ.:     0.0235728 α      in ANC's #6, #1, #5, ...

........................................................................
.............................. CYCLE   45 ..............................
........................................................................

 iter      E             dE          RMSdq      gap      omega  full diag
   1   -188.0094384 -0.188009E+03  0.979E-03    1.93       0.0  T
   2   -188.0094388 -0.467389E-06  0.552E-03    1.93       1.8  T
   3   -188.0094388  0.739081E-07  0.187E-03    1.93       5.3  T
   4   -188.0094389 -0.109149E-06  0.762E-04    1.93      13.0  T
   5   -188.0094389 -0.304406E-07  0.301E-04    1.93      32.9  T
     SCC iter.                  ...        0 min,  0.063 sec
     gradient                   ...        0 min,  0.050 sec
 * total energy  :  -186.3167302 Eh     change       -0.1387111E-04 Eh
   gradient norm :     0.0020489 Eh/α   predicted    -0.8929473E-05 ( -35.63%)
   displ. norm   :     0.0328242 α      lambda       -0.8201825E-05
   maximum displ.:     0.0120022 α      in ANC's #6, #1, #5, ...

........................................................................
.............................. CYCLE   46 ..............................
........................................................................

 iter      E             dE          RMSdq      gap      omega  full diag
   1   -188.0093160 -0.188009E+03  0.404E-03    1.93       0.0  T
   2   -188.0093160 -0.327461E-07  0.232E-03    1.93       4.3  T
   3   -188.0093160  0.133389E-07  0.609E-04    1.93      16.3  T
   4   -188.0093160 -0.181422E-07  0.244E-04    1.93      40.6  T
     SCC iter.                  ...        0 min,  0.056 sec
     gradient                   ...        0 min,  0.045 sec
 * total energy  :  -186.3167378 Eh     change       -0.7582047E-05 Eh
   gradient norm :     0.0016580 Eh/α   predicted    -0.4232975E-05 ( -44.17%)
   displ. norm   :     0.2334510 α      lambda       -0.3414756E-04
   maximum displ.:     0.0850674 α      in ANC's #6, #1, #5, ...

........................................................................
.............................. CYCLE   47 ..............................
........................................................................

 iter      E             dE          RMSdq      gap      omega  full diag
   1   -188.0085815 -0.188009E+03  0.261E-02    1.93       0.0  T
   2   -188.0085826 -0.110049E-05  0.151E-02    1.93       1.0  T
   3   -188.0085819  0.697201E-06  0.376E-03    1.93       2.6  T
   4   -188.0085827 -0.848567E-06  0.159E-03    1.93       6.2  T
   5   -188.0085829 -0.119913E-06  0.616E-04    1.93      16.1  T
   6   -188.0085829 -0.107459E-07  0.222E-04    1.93      44.6  T
     SCC iter.                  ...        0 min,  0.098 sec
     gradient                   ...        0 min,  0.046 sec
 * total energy  :  -186.3167621 Eh     change       -0.2433685E-04 Eh
   gradient norm :     0.0025309 Eh/α   predicted    -0.1751615E-04 ( -28.03%)
   displ. norm   :     0.0348804 α      lambda       -0.9354633E-05
   maximum displ.:     0.0140236 α      in ANC's #1, #6, #5, ...

........................................................................
.............................. CYCLE   48 ..............................
........................................................................

 iter      E             dE          RMSdq      gap      omega  full diag
   1   -188.0089192 -0.188009E+03  0.359E-03    1.93       0.0  T
   2   -188.0089192 -0.336882E-07  0.211E-03    1.93       4.7  T
   3   -188.0089192  0.899689E-08  0.558E-04    1.93      17.7  T
   4   -188.0089192 -0.143315E-07  0.167E-04    1.93      59.4  T
     SCC iter.                  ...        0 min,  0.061 sec
     gradient                   ...        0 min,  0.045 sec
 * total energy  :  -186.3167707 Eh     change       -0.8541362E-05 Eh
   gradient norm :     0.0019697 Eh/α   predicted    -0.4683681E-05 ( -45.16%)
   displ. norm   :     0.2909595 α      lambda       -0.4117689E-04
   maximum displ.:     0.1168694 α      in ANC's #1, #6, #5, ...

........................................................................
.............................. CYCLE   49 ..............................
........................................................................

 iter      E             dE          RMSdq      gap      omega  full diag
   1   -188.0098223 -0.188010E+03  0.284E-02    1.93       0.0  T
   2   -188.0098239 -0.156822E-05  0.167E-02    1.93       1.0  T
   3   -188.0098236  0.320955E-06  0.352E-03    1.93       2.8  T
   4   -188.0098242 -0.572748E-06  0.118E-03    1.93       8.4  T
   5   -188.0098242 -0.428604E-07  0.531E-04    1.93      18.7  T
   6   -188.0098242 -0.219916E-08  0.264E-04    1.93      37.5  T
     SCC iter.                  ...        0 min,  0.085 sec
     gradient                   ...        0 min,  0.044 sec
 * total energy  :  -186.3167990 Eh     change       -0.2831861E-04 Eh
   gradient norm :     0.0018211 Eh/α   predicted    -0.2137905E-04 ( -24.51%)
   displ. norm   :     0.0677296 α      lambda       -0.6437063E-05
   maximum displ.:     0.0280708 α      in ANC's #1, #6, #5, ...

........................................................................
.............................. CYCLE   50 ..............................
........................................................................

 iter      E             dE          RMSdq      gap      omega  full diag
   1   -188.0094632 -0.188009E+03  0.657E-03    1.93       0.0  T
   2   -188.0094633 -0.616974E-07  0.387E-03    1.93       2.6  T
   3   -188.0094633 -0.138647E-08  0.533E-04    1.93      18.6  T
   4   -188.0094633 -0.989931E-08  0.227E-04    1.93      43.6  T
     SCC iter.                  ...        0 min,  0.059 sec
     gradient                   ...        0 min,  0.047 sec
 * total energy  :  -186.3168066 Eh     change       -0.7623868E-05 Eh
   gradient norm :     0.0009191 Eh/α   predicted    -0.3226799E-05 ( -57.68%)
   displ. norm   :     0.1265087 α      lambda       -0.9967769E-05
   maximum displ.:     0.0548043 α      in ANC's #1, #6, #5, ...

........................................................................
.............................. CYCLE   51 ..............................
........................................................................

 iter      E             dE          RMSdq      gap      omega  full diag
   1   -188.0092885 -0.188009E+03  0.125E-02    1.93       0.0  T
   2   -188.0092886 -0.151770E-06  0.739E-03    1.93       1.3  T
   3   -188.0092886  0.456180E-07  0.122E-03    1.93       8.1  T
   4   -188.0092887 -0.816357E-07  0.538E-04    1.93      18.4  T
   5   -188.0092887 -0.107165E-07  0.246E-04    1.93      40.2  T
     SCC iter.                  ...        0 min,  0.071 sec
     gradient                   ...        0 min,  0.045 sec
 * total energy  :  -186.3168164 Eh     change       -0.9784310E-05 Eh
   gradient norm :     0.0010343 Eh/α   predicted    -0.5029056E-05 ( -48.60%)
   displ. norm   :     0.1295466 α      lambda        0.1378926E-05
   maximum displ.:     0.0561411 α      in ANC's #1, #6, #5, ...

........................................................................
.............................. CYCLE   52 ..............................
........................................................................

 iter      E             dE          RMSdq      gap      omega  full diag
   1   -188.0089207 -0.188009E+03  0.128E-02    1.93       0.0  T
   2   -188.0089208 -0.163305E-06  0.756E-03    1.93       1.3  T
   3   -188.0089208  0.434932E-07  0.123E-03    1.93       8.0  T
   4   -188.0089209 -0.811452E-07  0.552E-04    1.93      17.9  T
   5   -188.0089209 -0.113019E-07  0.256E-04    1.93      38.7  T
     SCC iter.                  ...        0 min,  0.068 sec
     gradient                   ...        0 min,  0.045 sec
 * total energy  :  -186.3168153 Eh     change        0.1095200E-05 Eh
   gradient norm :     0.0026168 Eh/α   predicted     0.6931790E-06 ( -36.71%)
   displ. norm   :     0.0128198 α      lambda       -0.7880450E-05
   maximum displ.:     0.0036932 α      in ANC's #6, #14, #21, ...

........................................................................
.............................. CYCLE   53 ..............................
........................................................................

 iter      E             dE          RMSdq      gap      omega  full diag
   1   -188.0090521 -0.188009E+03  0.272E-03    1.93       0.0  T
   2   -188.0090522 -0.310719E-07  0.159E-03    1.93       6.2  T
   3   -188.0090522  0.106084E-08  0.399E-04    1.93      24.8  T
   4   -188.0090522 -0.428398E-08  0.102E-04    1.93      97.4  T
     SCC iter.                  ...        0 min,  0.056 sec
     gradient                   ...        0 min,  0.048 sec
 * total energy  :  -186.3168214 Eh     change       -0.6048106E-05 Eh
   gradient norm :     0.0016862 Eh/α   predicted    -0.3943252E-05 ( -34.80%)
   displ. norm   :     0.0450750 α      lambda       -0.9996912E-05
   maximum displ.:     0.0176903 α      in ANC's #21, #17, #42, ...

........................................................................
.............................. CYCLE   54 ..............................
........................................................................

 iter      E             dE          RMSdq      gap      omega  full diag
   1   -188.0096627 -0.188010E+03  0.821E-03    1.93       0.0  T
   2   -188.0096630 -0.261227E-06  0.468E-03    1.93       2.1  T
   3   -188.0096630  0.159547E-07  0.124E-03    1.93       8.0  T
   4   -188.0096630 -0.444851E-07  0.414E-04    1.93      23.9  T
   5   -188.0096630 -0.403136E-08  0.223E-04    1.93      44.3  T
     SCC iter.                  ...        0 min,  0.075 sec
     gradient                   ...        0 min,  0.069 sec
 * total energy  :  -186.3168285 Eh     change       -0.7144813E-05 Eh
   gradient norm :     0.0008286 Eh/α   predicted    -0.5006843E-05 ( -29.92%)
   displ. norm   :     0.0799049 α      lambda       -0.3802162E-05
   maximum displ.:     0.0364045 α      in ANC's #1, #6, #5, ...

........................................................................
.............................. CYCLE   55 ..............................
........................................................................

 iter      E             dE          RMSdq      gap      omega  full diag
   1   -188.0095073 -0.188010E+03  0.791E-03    1.93       0.0  T
   2   -188.0095074 -0.540530E-07  0.462E-03    1.93       2.1  T
   3   -188.0095074  0.302623E-08  0.686E-04    1.93      14.4  T
   4   -188.0095074 -0.159511E-07  0.322E-04    1.93      30.7  T
     SCC iter.                  ...        0 min,  0.062 sec
     gradient                   ...        0 min,  0.045 sec
 * total energy  :  -186.3168334 Eh     change       -0.4908758E-05 Eh
   gradient norm :     0.0005822 Eh/α   predicted    -0.1913411E-05 ( -61.02%)
   displ. norm   :     0.1853195 α      lambda       -0.9190457E-05
   maximum displ.:     0.0834788 α      in ANC's #1, #5, #6, ...

........................................................................
.............................. CYCLE   56 ..............................
........................................................................

 iter      E             dE          RMSdq      gap      omega  full diag
   1   -188.0093740 -0.188009E+03  0.196E-02    1.93       0.0  T
   2   -188.0093743 -0.326746E-06  0.114E-02    1.93       1.0  T
   3   -188.0093743  0.662136E-07  0.191E-03    1.93       5.2  T
   4   -188.0093744 -0.142860E-06  0.884E-04    1.93      11.2  T
   5   -188.0093744 -0.225658E-07  0.369E-04    1.93      26.8  T
     SCC iter.                  ...        0 min,  0.081 sec
     gradient                   ...        0 min,  0.045 sec
 * total energy  :  -186.3168418 Eh     change       -0.8356587E-05 Eh
   gradient norm :     0.0005209 Eh/α   predicted    -0.4666603E-05 ( -44.16%)
   displ. norm   :     0.1892433 α      lambda        0.4333026E-05
   maximum displ.:     0.0853025 α      in ANC's #1, #5, #6, ...

........................................................................
.............................. CYCLE   57 ..............................
........................................................................

 iter      E             dE          RMSdq      gap      omega  full diag
   1   -188.0087811 -0.188009E+03  0.200E-02    1.93       0.0  T
   2   -188.0087814 -0.356046E-06  0.116E-02    1.93       1.0  T
   3   -188.0087814  0.140656E-07  0.181E-03    1.93       5.5  T
   4   -188.0087815 -0.989634E-07  0.843E-04    1.93      11.8  T
   5   -188.0087815 -0.151352E-07  0.352E-04    1.93      28.2  T
     SCC iter.                  ...        0 min,  0.068 sec
     gradient                   ...        0 min,  0.046 sec
 * total energy  :  -186.3168381 Eh     change        0.3702545E-05 Eh
   gradient norm :     0.0016233 Eh/α   predicted     0.2199183E-05 ( -40.60%)
   displ. norm   :     0.1125917 α      lambda       -0.8386171E-05
   maximum displ.:     0.0482034 α      in ANC's #1, #6, #5, ...

........................................................................
.............................. CYCLE   58 ..............................
........................................................................

 iter      E             dE          RMSdq      gap      omega  full diag
   1   -188.0092973 -0.188009E+03  0.138E-02    1.93       0.0  T
   2   -188.0092975 -0.184189E-06  0.801E-03    1.93       1.2  T
   3   -188.0092975  0.336743E-07  0.138E-03    1.93       7.2  T
   4   -188.0092975 -0.718040E-07  0.649E-04    1.93      15.3  T
   5   -188.0092976 -0.129086E-07  0.266E-04    1.93      37.2  T
     SCC iter.                  ...        0 min,  0.066 sec
     gradient                   ...        0 min,  0.045 sec
 * total energy  :  -186.3168454 Eh     change       -0.7343875E-05 Eh
   gradient norm :     0.0006094 Eh/α   predicted    -0.4218946E-05 ( -42.55%)
   displ. norm   :     0.0225852 α      lambda       -0.2645237E-05
   maximum displ.:     0.0098746 α      in ANC's #22, #21, #46, ...

........................................................................
.............................. CYCLE   59 ..............................
........................................................................

 iter      E             dE          RMSdq      gap      omega  full diag
   1   -188.0095283 -0.188010E+03  0.385E-03    1.93       0.0  T
   2   -188.0095284 -0.289465E-07  0.221E-03    1.93       4.5  T
   3   -188.0095284  0.633594E-08  0.526E-04    1.93      18.8  T
   4   -188.0095284 -0.121456E-07  0.212E-04    1.93      46.8  T
     SCC iter.                  ...        0 min,  0.054 sec
     gradient                   ...        0 min,  0.045 sec
 * total energy  :  -186.3168486 Eh     change       -0.3195299E-05 Eh
   gradient norm :     0.0002879 Eh/α   predicted    -0.1324554E-05 ( -58.55%)
   displ. norm   :     0.1137177 α      lambda       -0.7076501E-05
   maximum displ.:     0.0475158 α      in ANC's #1, #5, #8, ...

........................................................................
.............................. CYCLE   60 ..............................
........................................................................

 iter      E             dE          RMSdq      gap      omega  full diag
   1   -188.0094688 -0.188009E+03  0.129E-02    1.93       0.0  T
   2   -188.0094691 -0.223688E-06  0.749E-03    1.93       1.3  T
   3   -188.0094689  0.137911E-06  0.181E-03    1.93       5.5  T
[...]
    60   1 H        0.860     0.177     1.229     1.737
    61   1 H        0.925     0.071     2.073     2.252
    62   1 H        0.924     0.082     1.959     2.189
    63   1 H        0.924     0.044     2.394     2.420
    64   1 H        0.924     0.078     1.997     2.210
    65   1 H        0.923     0.063     2.164     2.301
    66   1 H        0.925     0.092     1.857     2.131
    67   1 H        0.925     0.086     1.919     2.166
    68   1 H        0.925     0.089     1.886     2.148
    69   1 H        0.923     0.088     1.902     2.157
    70   1 H        0.925     0.116     1.643     2.004
    71   1 H        0.925     0.084     1.938     2.177
    72   1 H        0.925     0.076     2.018     2.221
    73   1 H        0.924     0.060     2.203     2.321
    74   1 H        0.923     0.061     2.186     2.312
    75   1 H        0.923     0.074     2.039     2.233
    76   1 H        0.925     0.079     1.987     2.204
    77   1 H        0.925     0.117     1.635     2.000
    78   1 H        0.925     0.087     1.905     2.158
    79   1 H        0.924     0.089     1.886     2.148
    80   1 H        0.925     0.079     1.987     2.204
    81   1 H        0.925     0.101     1.775     2.083
    82   1 H        0.925     0.079     1.984     2.203
    83   1 H        0.923     0.076     2.019     2.222
    84   1 H        0.925     0.081     1.971     2.196
    85   1 H        0.925     0.104     1.746     2.066
    86   1 H        0.925     0.080     1.977     2.199
    87   1 H        0.923     0.082     1.960     2.189
    88   1 H        0.924     0.079     1.993     2.208
    89   1 H        0.924     0.077     2.011     2.218
    90   1 H        0.925     0.086     1.920     2.167
    91   1 H        0.925     0.082     1.962     2.190
    92   1 H        0.925     0.079     1.994     2.208
    93   1 H        0.923     0.067     2.118     2.276
    94   1 H        0.924     0.086     1.916     2.165
    95   1 H        0.924     0.077     2.012     2.218
    96   1 H        0.925     0.083     1.950     2.184
    97   1 H        0.925     0.103     1.757     2.073
    98   1 H        0.925     0.082     1.958     2.188
    99   1 H        0.925     0.073     2.051     2.240
   100   1 H        0.924     0.052     2.291     2.367
   101   1 H        0.924     0.039     2.456     2.451
   102   1 H        0.924     0.060     2.201     2.320

 Mol. C6AA /au·bohr⁶  :     112707.445233
 Mol. C8AA /au·bohr⁸  :    2697454.807924
 Mol. α(0) /au        :        498.379681


Wiberg/Mayer (AO) data.
largest (>0.10) Wiberg bond orders for each atom

 ---------------------------------------------------------------------------
     #   Z sym  total        # sym  WBO       # sym  WBO       # sym  WBO
 ---------------------------------------------------------------------------
     1  16 S    1.810 --     2 C    1.467     3 N    0.155
     2   6 C    3.958 --     1 S    1.467     3 N    1.288     4 N    1.170
     3   7 N    3.398 --     2 C    1.288    59 H    0.941    58 H    0.929
                             1 S    0.155
     4   7 N    3.527 --     2 C    1.170     5 N    1.131    60 H    0.923
                             6 C    0.114
     5   7 N    3.073 --     6 C    1.743     4 N    1.131
     6   6 C    3.977 --     5 N    1.743     7 C    1.010    55 C    0.948
                             4 N    0.114
     7   6 C    3.989 --     6 C    1.010     8 C    0.983    61 H    0.972
                            62 H    0.948
     8   6 C    3.974 --     7 C    0.983    53 C    0.978     9 S    0.970
                            63 H    0.964
     9  16 S    2.099 --     8 C    0.970    10 C    0.944
    10   6 C    3.943 --    52 O    1.009    11 C    0.964    64 H    0.949
                             9 S    0.944
    11   6 C    3.944 --    16 C    0.971    10 C    0.964    12 O    0.957
                            65 H    0.950
    12   8 O    2.308 --    13 C    1.104    11 C    0.957    15 O    0.165
    13   6 C    3.906 --    15 O    1.758    12 O    1.104    14 C    0.995
    14   6 C    3.986 --    13 C    0.995    68 H    0.975    67 H    0.973
                            66 H    0.949
    15   8 O    2.038 --    13 C    1.758    12 O    0.165
    16   6 C    3.937 --    11 C    0.971    21 C    0.967    69 H    0.949
                            17 O    0.947
    17   8 O    2.284 --    18 C    1.092    16 C    0.947    20 O    0.161
    18   6 C    3.903 --    20 O    1.756    17 O    1.092    19 C    0.998
    19   6 C    3.985 --    18 C    0.998    72 H    0.978    71 H    0.972
                            70 H    0.936
    20   8 O    2.045 --    18 C    1.756    17 O    0.161
    21   6 C    3.947 --    22 O    0.970    16 C    0.967    46 C    0.964
                            73 H    0.957
    22   8 O    2.096 --    23 C    0.975    21 C    0.970
    23   6 C    3.929 --    45 O    0.985    22 O    0.975    74 H    0.946
                            24 C    0.946
    24   6 C    3.943 --    29 C    0.976    25 O    0.957    75 H    0.952
                            23 C    0.946
    25   8 O    2.311 --    26 C    1.112    24 C    0.957    28 O    0.163
    26   6 C    3.903 --    28 O    1.735    25 O    1.112    27 C    1.001
    27   6 C    3.984 --    26 C    1.001    76 H    0.981    78 H    0.965
                            77 H    0.935
    28   8 O    2.023 --    26 C    1.735    25 O    0.163
    29   6 C    3.939 --    24 C    0.976    34 C    0.962    79 H    0.950
                            30 O    0.948
    30   8 O    2.297 --    31 C    1.105    29 C    0.948    33 O    0.165
    31   6 C    3.906 --    33 O    1.758    30 O    1.105    32 C    0.993
    32   6 C    3.987 --    31 C    0.993    82 H    0.980    80 H    0.972
                            81 H    0.947
    33   8 O    2.040 --    31 C    1.758    30 O    0.165
    34   6 C    3.939 --    39 C    0.966    29 C    0.962    35 O    0.953
                            83 H    0.953
    35   8 O    2.301 --    36 C    1.104    34 C    0.953    38 O    0.164
    36   6 C    3.906 --    38 O    1.755    35 O    1.104    37 C    0.995
    37   6 C    3.987 --    36 C    0.995    86 H    0.979    84 H    0.972
                            85 H    0.945
    38   8 O    2.036 --    36 C    1.755    35 O    0.164
    39   6 C    3.940 --    40 C    0.980    34 C    0.966    45 O    0.961
                            87 H    0.941
    40   6 C    3.938 --    39 C    0.980    89 H    0.965    41 O    0.963
                            88 H    0.960
    41   8 O    2.303 --    42 C    1.108    40 C    0.963    44 O    0.167
    42   6 C    3.912 --    44 O    1.767    41 O    1.108    43 C    0.990
    43   6 C    3.990 --    42 C    0.990    92 H    0.977    91 H    0.976
                            90 H    0.953
    44   8 O    2.051 --    42 C    1.767    41 O    0.167
    45   8 O    2.095 --    23 C    0.985    39 C    0.961
    46   6 C    3.943 --    47 C    0.980    21 C    0.964    52 O    0.963
                            93 H    0.948
    47   6 C    3.935 --    46 C    0.980    94 H    0.964    48 O    0.962
                            95 H    0.955
    48   8 O    2.296 --    49 C    1.102    47 C    0.962    51 O    0.164
    49   6 C    3.908 --    51 O    1.758    48 O    1.102    50 C    0.999
    50   6 C    3.986 --    49 C    0.999    96 H    0.980    98 H    0.966
                            97 H    0.944
    51   8 O    2.048 --    49 C    1.758    48 O    0.164
    52   8 O    2.134 --    10 C    1.009    46 C    0.963
    53   6 C    3.945 --     8 C    0.978    54 O    0.973    57 C    0.968
                            99 H    0.955
    54   8 O    2.097 --    55 C    0.984    53 C    0.973
    55   6 C    3.923 --    54 O    0.984    56 O    0.951   100 H    0.948
                             6 C    0.948
    56   8 O    2.065 --    57 C    0.979    55 C    0.951
    57   6 C    3.949 --    56 O    0.979   102 H    0.972   101 H    0.970
                            53 C    0.968
    58   1 H    0.958 --     3 N    0.929
    59   1 H    0.957 --     3 N    0.941
    60   1 H    0.969 --     4 N    0.923
    61   1 H    0.995 --     7 C    0.972
    62   1 H    0.990 --     7 C    0.948
    63   1 H    0.998 --     8 C    0.964
    64   1 H    0.993 --    10 C    0.949
    65   1 H    0.996 --    11 C    0.950
    66   1 H    0.991 --    14 C    0.949
    67   1 H    0.992 --    14 C    0.973
    68   1 H    0.992 --    14 C    0.975
    69   1 H    0.992 --    16 C    0.949
    70   1 H    0.986 --    19 C    0.936
    71   1 H    0.993 --    19 C    0.972
    72   1 H    0.994 --    19 C    0.978
    73   1 H    0.996 --    21 C    0.957
    74   1 H    0.995 --    23 C    0.946
    75   1 H    0.994 --    24 C    0.952
    76   1 H    0.994 --    27 C    0.981
    77   1 H    0.986 --    27 C    0.935
    78   1 H    0.992 --    27 C    0.965
    79   1 H    0.992 --    29 C    0.950
    80   1 H    0.994 --    32 C    0.972
    81   1 H    0.990 --    32 C    0.947
    82   1 H    0.993 --    32 C    0.980
    83   1 H    0.994 --    34 C    0.953
    84   1 H    0.993 --    37 C    0.972
    85   1 H    0.989 --    37 C    0.945
    86   1 H    0.993 --    37 C    0.979
    87   1 H    0.993 --    39 C    0.941
    88   1 H    0.993 --    40 C    0.960
    89   1 H    0.994 --    40 C    0.965
    90   1 H    0.993 --    43 C    0.953
    91   1 H    0.993 --    43 C    0.976
    92   1 H    0.994 --    43 C    0.977
    93   1 H    0.995 --    46 C    0.948
    94   1 H    0.993 --    47 C    0.964
    95   1 H    0.994 --    47 C    0.955
    96   1 H    0.993 --    50 C    0.980
    97   1 H    0.989 --    50 C    0.944
    98   1 H    0.993 --    50 C    0.966
    99   1 H    0.995 --    53 C    0.955
   100   1 H    0.997 --    55 C    0.948
   101   1 H    0.998 --    57 C    0.970
   102   1 H    0.996 --    57 C    0.972
 ---------------------------------------------------------------------------

Topologies differ in total number of bonds
Writing topology from bond orders to xtbtopo.mol

molecular dipole:
                 x           y           z       tot (Debye)
 q only:       -1.025      -1.110      -1.368
   full:       -1.429      -1.377      -0.940       5.581
molecular quadrupole (traceless):
                xx          xy          yy          xz          yz          zz
 q only:      -34.324     -36.808      12.990     -36.651      12.895      21.334
  q+dip:      -46.249     -42.185      18.359     -34.793      11.082      27.890
   full:      -47.236     -41.386      18.739     -34.661      11.293      28.497

           -------------------------------------------------
          |                Geometry Summary                 |
           -------------------------------------------------

      molecular mass/u    :      851.8499964
   center of mass at/Å    :        0.3825089       0.0662804       0.0391054
  moments of inertia/u·Å² :        0.8450705E+04   0.2149174E+05   0.2447460E+05
rotational constants/cm⁻¹ :        0.1994820E-02   0.7843772E-03   0.6887806E-03

 * 93 selected distances

     #   Z          #   Z                                           value/Å
     1  16 S        2   6 C                                       1.6442151 (max)
     2   6 C        3   7 N                                       1.3408552
     2   6 C        4   7 N                                       1.3664131
     4   7 N        5   7 N                                       1.3399399
     5   7 N        6   6 C                                       1.2707444
     7   6 C        8   6 C                                       1.5369095
    10   6 C       11   6 C                                       1.5324165
    11   6 C       12   8 O                                       1.4151928
    12   8 O       13   6 C                                       1.3434747
    13   6 C       15   8 O                                       1.2020211
    11   6 C       16   6 C                                       1.5329753
    16   6 C       17   8 O                                       1.4243264
    17   8 O       18   6 C                                       1.3489534
    18   6 C       20   8 O                                       1.2005805
    16   6 C       21   6 C                                       1.5402575
    21   6 C       22   8 O                                       1.4185744
    22   8 O       23   6 C                                       1.4012681
    24   6 C       25   8 O                                       1.4158680
    25   8 O       26   6 C                                       1.3422434
    26   6 C       28   8 O                                       1.2049592
    24   6 C       29   6 C                                       1.5269877
    29   6 C       30   8 O                                       1.4232121
    30   8 O       31   6 C                                       1.3438189
    31   6 C       33   8 O                                       1.2010187
    29   6 C       34   6 C                                       1.5369135
    34   6 C       35   8 O                                       1.4184581
    35   8 O       36   6 C                                       1.3445596
    36   6 C       38   8 O                                       1.2018123
    34   6 C       39   6 C                                       1.5324853
    39   6 C       40   6 C                                       1.5314145
    40   6 C       41   8 O                                       1.4162798
    41   8 O       42   6 C                                       1.3455809
    42   6 C       44   8 O                                       1.2001849
    23   6 C       45   8 O                                       1.3942959
    39   6 C       45   8 O                                       1.4217286
    21   6 C       46   6 C                                       1.5366822
    46   6 C       47   6 C                                       1.5315891
    47   6 C       48   8 O                                       1.4174219
    48   8 O       49   6 C                                       1.3485646
    49   6 C       51   8 O                                       1.2018722
    10   6 C       52   8 O                                       1.3859162
    46   6 C       52   8 O                                       1.4157641
     8   6 C       53   6 C                                       1.5419462
    53   6 C       54   8 O                                       1.4158046
    54   8 O       55   6 C                                       1.3964230
    55   6 C       56   8 O                                       1.4185720
    53   6 C       57   6 C                                       1.5510455
    56   8 O       57   6 C                                       1.4180411
     3   7 N       58   1 H                                       1.0069010
     3   7 N       59   1 H                                       1.0033933 (min)
     4   7 N       60   1 H                                       1.0167747
     7   6 C       61   1 H                                       1.0878385
     7   6 C       62   1 H                                       1.0942066
     8   6 C       63   1 H                                       1.0927872
    10   6 C       64   1 H                                       1.0943322
    11   6 C       65   1 H                                       1.1006191
    14   6 C       66   1 H                                       1.0885382
    14   6 C       67   1 H                                       1.0858620
    14   6 C       68   1 H                                       1.0854405
    16   6 C       69   1 H                                       1.0985678
    19   6 C       70   1 H                                       1.0898389
    19   6 C       71   1 H                                       1.0858855
    19   6 C       72   1 H                                       1.0848805
    21   6 C       73   1 H                                       1.0974971
    23   6 C       74   1 H                                       1.0989407
    24   6 C       75   1 H                                       1.0997261
    27   6 C       76   1 H                                       1.0845845
    27   6 C       77   1 H                                       1.0898821
    27   6 C       78   1 H                                       1.0867096
    29   6 C       79   1 H                                       1.0976319
    32   6 C       80   1 H                                       1.0854803
    32   6 C       81   1 H                                       1.0893983
    32   6 C       82   1 H                                       1.0854324
    34   6 C       83   1 H                                       1.0984631
    37   6 C       84   1 H                                       1.0852553
    37   6 C       85   1 H                                       1.0895610
    37   6 C       86   1 H                                       1.0854534
    39   6 C       87   1 H                                       1.0982699
    40   6 C       88   1 H                                       1.0948305
    40   6 C       89   1 H                                       1.0905653
    43   6 C       90   1 H                                       1.0883869
    43   6 C       91   1 H                                       1.0858418
    43   6 C       92   1 H                                       1.0852597
    46   6 C       93   1 H                                       1.1014890
    47   6 C       94   1 H                                       1.0911180
    47   6 C       95   1 H                                       1.0910794
    50   6 C       96   1 H                                       1.0852530
    50   6 C       97   1 H                                       1.0900561
    50   6 C       98   1 H                                       1.0863168
    53   6 C       99   1 H                                       1.0877264
    55   6 C      100   1 H                                       1.0946313
    57   6 C      101   1 H                                       1.0940118
    57   6 C      102   1 H                                       1.0918557

 * 7 distinct bonds (by element types)

   Z      Z             #   av. dist./Å        max./Å        min./Å
   1 H    6 C          42     1.0909406     1.1014890     1.0845845
   6 C    6 C          12     1.5359686     1.5510455     1.5269877
   1 H    7 N           3     1.0090230     1.0167747     1.0033933
   6 C    7 N           3     1.3260042     1.3664131     1.2707444
   7 N    7 N           1     1.3399399     1.3399399     1.3399399
   6 C    8 O          31     1.3498965     1.4243264     1.2001849
   6 C   16 S           1     1.6442151     1.6442151     1.6442151


optimized geometry written to: xtbopt.xyz


           -------------------------------------------------
          | TOTAL ENERGY             -186.316870767878 Eh   |
          | GRADIENT NORM               0.000203812115 Eh/α |
          | HOMO-LUMO GAP               1.931438006428 eV   |
           -------------------------------------------------

------------------------------------------------------------------------
 * finished run on 2026/07/12 at 12:20:32.626     
Note: The following floating-point exceptions are signalling: IEEE_UNDERFLOW_FLAG IEEE_DENORMAL
normal termination of xtb
------------------------------------------------------------------------
 total:
 * wall-time:     0 d,  0 h,  0 min, 10.208 sec
 *  cpu-time:     0 d,  0 h,  2 min, 26.691 sec
 * ratio c/w:    14.371 speedup
 SCF:
 * wall-time:     0 d,  0 h,  0 min,  0.225 sec
 *  cpu-time:     0 d,  0 h,  0 min,  3.234 sec
 * ratio c/w:    14.352 speedup
 ANC optimizer:
 * wall-time:     0 d,  0 h,  0 min,  9.944 sec
 *  cpu-time:     0 d,  0 h,  2 min, 22.946 sec
 * ratio c/w:    14.375 speedup

