102
 energy: -186.278868537532 gnorm: 0.160516484357 xtb: 6.7.1 (edcfbbe)
S           11.36620000000000        2.39920000000000        0.32430000000000
C           10.17910000000000        1.61660000000000       -0.52850000000000
N           10.44370000000000        0.92680000000000       -1.66170000000000
N            8.86870000000000        1.63140000000000       -0.13680000000000
N            7.91700000000000        0.93770000000000       -0.82950000000000
C            6.67450000000000        1.11460000000000       -0.48580000000000
C            5.61350000000000        0.24600000000000       -1.13390000000000
C            4.60060000000000       -0.16910000000000       -0.05090000000000
S            3.12590000000000       -0.87670000000000       -0.89980000000000
C            2.42390000000000       -1.85750000000000        0.48490000000000
C            1.41260000000000       -2.93330000000000        0.06190000000000
O            1.93090000000000       -3.79130000000000       -0.98000000000000
C            2.86850000000000       -4.69840000000000       -0.60650000000000
C            3.29750000000000       -5.51530000000000       -1.78530000000000
O            3.30470000000000       -4.82570000000000        0.52800000000000
C            0.09160000000000       -2.31000000000000       -0.40910000000000
O           -0.88480000000000       -3.39110000000000       -0.49020000000000
C           -1.00850000000000       -4.03960000000000       -1.68020000000000
C           -1.93730000000000       -5.20640000000000       -1.53550000000000
O           -0.42790000000000       -3.74320000000000       -2.71420000000000
C           -0.45670000000000       -1.26910000000000        0.59420000000000
O           -1.40440000000000       -0.40990000000000       -0.08550000000000
C           -2.75940000000000       -0.86200000000000       -0.04540000000000
C           -3.57430000000000       -0.29780000000000       -1.22940000000000
O           -2.90790000000000       -0.51400000000000       -2.49630000000000
C           -3.05470000000000       -1.74940000000000       -3.03760000000000
C           -2.40120000000000       -1.80740000000000       -4.38350000000000
O           -3.64860000000000       -2.67790000000000       -2.50740000000000
C           -3.82320000000000        1.20850000000000       -1.08890000000000
O           -4.77930000000000        1.55600000000000       -2.12840000000000
C           -4.65280000000000        2.77490000000000       -2.71400000000000
C           -5.70350000000000        2.94650000000000       -3.76740000000000
O           -3.82020000000000        3.62170000000000       -2.42520000000000
C           -4.41390000000000        1.52430000000000        0.29620000000000
O           -4.45240000000000        2.95200000000000        0.51370000000000
C           -5.61680000000000        3.59260000000000        0.23080000000000
C           -5.47280000000000        5.05860000000000        0.50100000000000
O           -6.63650000000000        3.06270000000000       -0.18650000000000
C           -3.50670000000000        0.91480000000000        1.37440000000000
C           -4.03010000000000        1.17630000000000        2.79510000000000
O           -5.34990000000000        0.62510000000000        2.95700000000000
C           -5.43030000000000       -0.56360000000000        3.61590000000000
C           -6.85360000000000       -1.03120000000000        3.64080000000000
O           -4.49850000000000       -1.17010000000000        4.12440000000000
O           -3.35870000000000       -0.50270000000000        1.19850000000000
C            0.65350000000000       -0.35060000000000        1.15230000000000
C            0.18450000000000        0.33570000000000        2.45010000000000
O            1.05030000000000        1.44410000000000        2.77460000000000
C            0.66030000000000        2.64990000000000        2.27690000000000
C            1.64290000000000        3.71120000000000        2.66560000000000
O           -0.34000000000000        2.84530000000000        1.60170000000000
O            1.86580000000000       -1.03830000000000        1.50670000000000
C            4.22860000000000        1.02070000000000        0.87880000000000
O            4.72980000000000        2.24360000000000        0.30960000000000
C            6.13550000000000        2.10770000000000        0.55000000000000
O            6.31310000000000        1.49410000000000        1.83040000000000
C            5.01040000000000        1.00170000000000        2.18220000000000
H            9.66520000000000        0.46610000000000       -2.11680000000000
H           11.37890000000000        0.85500000000000       -2.03380000000000
H            8.64700000000000        2.10610000000000        0.73440000000000
H            6.07820000000000       -0.63140000000000       -1.59760000000000
H            5.14660000000000        0.84580000000000       -1.92530000000000
H            5.03890000000000       -0.98220000000000        0.53930000000000
H            3.27980000000000       -2.36540000000000        0.93780000000000
H            1.17310000000000       -3.56100000000000        0.93310000000000
H            3.76040000000000       -4.86850000000000       -2.53470000000000
H            4.03150000000000       -6.25910000000000       -1.46280000000000
H            2.43540000000000       -6.03810000000000       -2.20730000000000
H            0.19520000000000       -1.84770000000000       -1.39860000000000
H           -2.82750000000000       -4.91280000000000       -0.97280000000000
H           -2.25830000000000       -5.53780000000000       -2.52700000000000
H           -1.42090000000000       -6.02460000000000       -1.02830000000000
H           -0.95350000000000       -1.78620000000000        1.42650000000000
H           -2.78340000000000       -1.95210000000000       -0.10900000000000
H           -4.56020000000000       -0.78480000000000       -1.25260000000000
H           -2.93560000000000       -1.15770000000000       -5.08080000000000
H           -1.35410000000000       -1.50430000000000       -4.30270000000000
H           -2.43570000000000       -2.83400000000000       -4.75910000000000
H           -2.88780000000000        1.75800000000000       -1.25630000000000
H           -5.60010000000000        2.16540000000000       -4.52480000000000
H           -6.69550000000000        2.91150000000000       -3.31050000000000
H           -5.57530000000000        3.91870000000000       -4.25190000000000
H           -5.42020000000000        1.09160000000000        0.36840000000000
H           -5.24620000000000        5.21970000000000        1.55790000000000
H           -4.68470000000000        5.47670000000000       -0.13020000000000
H           -6.41330000000000        5.56450000000000        0.26470000000000
H           -2.52390000000000        1.39130000000000        1.31090000000000
H           -3.33390000000000        0.76780000000000        3.53660000000000
H           -4.10470000000000        2.25140000000000        2.98920000000000
H           -7.22060000000000       -1.15540000000000        2.61880000000000
H           -6.90870000000000       -1.99820000000000        4.14910000000000
H           -7.47020000000000       -0.31330000000000        4.18730000000000
H            0.89580000000000        0.42860000000000        0.41970000000000
H            0.26020000000000       -0.36280000000000        3.29160000000000
H           -0.85460000000000        0.66280000000000        2.40770000000000
H            1.26490000000000        4.68750000000000        2.34890000000000
H            2.60080000000000        3.52790000000000        2.17380000000000
H            1.76450000000000        3.72580000000000        3.75170000000000
H            3.15860000000000        1.11600000000000        1.05930000000000
H            6.63660000000000        3.07680000000000        0.49230000000000
H            5.08370000000000        0.01650000000000        2.65030000000000
H            4.58460000000000        1.70710000000000        2.90430000000000
102
 energy: -186.300332379543 gnorm: 0.052839979185 xtb: 6.7.1 (edcfbbe)
S           11.34446385777424        2.39611331965601        0.32183698676142
C           10.17377716977451        1.60679049290235       -0.53440642852988
N           10.43525761156000        0.92351621415512       -1.66297804105950
N            8.86768966634981        1.63291192364252       -0.13898565683801
N            7.91134904865597        0.93840126982894       -0.80624733853307
C            6.68228417244200        1.11036142050842       -0.49365170381781
C            5.61638322651146        0.25410804412416       -1.12654943057343
C            4.59594251619654       -0.16950839430677       -0.05640854477328
S            3.10861621186421       -0.87343417237671       -0.89040033188248
C            2.41856150221340       -1.85754682552774        0.49955519295507
C            1.41067463306393       -2.92601578128907        0.06118854060536
O            1.93591626118022       -3.77399099349046       -0.96784380927075
C            2.86575048465428       -4.68336408058496       -0.60565283827481
C            3.29653222449619       -5.51211205695015       -1.77900342945415
O            3.28487684000535       -4.80518138196840        0.51695258201537
C            0.08908572826312       -2.31205096212704       -0.41527949098086
O           -0.87867624641294       -3.38046693057921       -0.50426444464196
C           -1.00285492817909       -4.03623837452611       -1.68123388786081
C           -1.93946753273657       -5.19967916231598       -1.54022835468223
O           -0.43760898818134       -3.72613270163719       -2.69555990495501
C           -0.45906306971720       -1.26814358355095        0.58229200114437
O           -1.40572302017943       -0.41795084753665       -0.08508059229162
C           -2.75407033306069       -0.85498571667129       -0.03794359249453
C           -3.56439991759071       -0.28928687239318       -1.22388021185429
O           -2.90848737010133       -0.52286507229527       -2.47678393317155
C           -3.05146717515016       -1.74670033406770       -3.02693092469169
C           -2.40177764368750       -1.81209033887322       -4.37639565187207
O           -3.63818154404203       -2.65548218074034       -2.49544145906374
C           -3.81972739188475        1.21458891537342       -1.09306400595857
O           -4.76215371837992        1.56343169930361       -2.12458525682951
C           -4.65299487106290        2.77627007136762       -2.70451374411615
C           -5.70017587389511        2.95036233173246       -3.76535101225388
O           -3.82505836208326        3.60012254895571       -2.41718010723589
C           -4.40861211716307        1.52283260498719        0.29345477137385
O           -4.46316505508869        2.93718394278283        0.50995198891643
C           -5.61308108637951        3.58412204587625        0.22365343288377
C           -5.47671225040910        5.05324007362516        0.49755406772964
O           -6.61286916080358        3.05181471201248       -0.18326502485741
C           -3.49443028497351        0.92060267149716        1.37097581467567
C           -4.03053944659827        1.16917078530266        2.78729361174086
O           -5.33369472525895        0.61350066365993        2.96012334803923
C           -5.42390179810343       -0.56758760614057        3.60941195996087
C           -6.84988092837118       -1.03771715119504        3.64287988264918
O           -4.49938714154474       -1.14550096130408        4.11612945650355
O           -3.35990031268250       -0.48997048412533        1.18477004277464
C            0.64891228569089       -0.35356547216059        1.14836162569076
C            0.19321067031821        0.33000237068010        2.44772901138471
O            1.03535594369081        1.44356548897974        2.76217247903638
C            0.65933616496537        2.64514339682476        2.26961566129236
C            1.63715685042923        3.71402100735166        2.66212797624887
O           -0.33757400169221        2.82554363465532        1.61975421859161
O            1.84716568511541       -1.04876831063555        1.50012435608838
C            4.24283150796863        1.02071705217347        0.87105188373376
O            4.74689722282892        2.23691579192781        0.31825373786690
C            6.13539615977968        2.08587753322058        0.53868755512856
O            6.29533609751717        1.50337956195279        1.83088967620158
C            5.01135473056517        0.99514169950653        2.19082752969294
H            9.66529872620243        0.46038428157204       -2.12104803713509
H           11.37013112563585        0.85815890129808       -2.02432420895112
H            8.65280628417711        2.11840312777499        0.72609905159096
H            6.07031319875058       -0.62194397037175       -1.59124141568210
H            5.12410412625389        0.84058612847187       -1.90932972695543
H            5.02635588316275       -0.98000830239967        0.53972804211050
H            3.27364459566849       -2.35707669694372        0.96573347568224
H            1.19101391861705       -3.55223400360298        0.93894152708271
H            3.74354978445041       -4.86830245956956       -2.53371901606141
H            4.02712724806800       -6.25361522926970       -1.45679578932108
H            2.43509451981276       -6.01710425367866       -2.21202776361987
H            0.20609740548092       -1.85655883165285       -1.40487687688753
H           -2.81770764947463       -4.90991763386771       -0.96716590276391
H           -2.25196570590846       -5.53503818112080       -2.52724395782188
H           -1.42760531366490       -6.01303842234420       -1.02787726402878
H           -0.95351116321880       -1.78989852393397        1.41161881110214
H           -2.79171283822407       -1.94873852600962       -0.08369556380836
H           -4.53840928544586       -0.79875943027917       -1.24436049869426
H           -2.92575175927683       -1.15348504311937       -5.06735983016894
H           -1.36292243659868       -1.49821674956656       -4.30095680237827
H           -2.43784011484870       -2.83335171834707       -4.75194232245963
H           -2.89173720178129        1.77523750415414       -1.25163804231048
H           -5.60860746456628        2.16161930030179       -4.51006800216309
H           -6.68728560834238        2.90029252460145       -3.30942505917839
H           -5.57299107445529        3.91882362211987       -4.24732130551023
H           -5.42079813762973        1.10408716497723        0.36348415625898
H           -5.23365020496328        5.21433040116863        1.54633852704020
H           -4.68038053428546        5.46346206947975       -0.12082780188829
H           -6.41334100186947        5.55769900742100        0.26313582434416
H           -2.51215611837823        1.40327554153073        1.29396769285728
H           -3.34750080049886        0.73693840480504        3.52634320771343
H           -4.11237234627125        2.24555272510624        2.96594288260084
H           -7.22242330432975       -1.14566558009964        2.62614890665859
H           -6.90611241517179       -1.99835524947085        4.15226879491411
H           -7.46607014176657       -0.31263418077013        4.17164412183293
H            0.88187797850054        0.41617908984000        0.39978104909445
H            0.28355615192954       -0.36751718375514        3.28602869741827
H           -0.84266695821703        0.66697920509689        2.37478941902175
H            1.26185978344837        4.68580126172136        2.34546492685389
H            2.59514239816067        3.52742857782830        2.17984854577079
H            1.77441635151431        3.71398943448126        3.74233361883800
H            3.17062041886690        1.11857194007739        1.03291479044788
H            6.61826351329881        3.06668915144724        0.49291466038557
H            5.10447163673910        0.00991838759883        2.64813151441312
H            4.56499635198809        1.69353587810198        2.90843270488821
102
 energy: -186.305745597758 gnorm: 0.021372121887 xtb: 6.7.1 (edcfbbe)
S           11.31878150161282        2.39407078040011        0.31921536604887
C           10.16392950395803        1.59728590804071       -0.54198249526584
N           10.42252197822402        0.91460711558027       -1.66645144734119
N            8.86136741001276        1.63268859861524       -0.13946477735509
N            7.90159465689529        0.93390929737903       -0.78137794049418
C            6.67709687895862        1.09848746463451       -0.48835391240056
C            5.61155611937294        0.25249875878829       -1.12222217203599
C            4.59396449462719       -0.17372721214999       -0.05110360483941
S            3.10052482707714       -0.86860772101149       -0.88201321103953
C            2.41216370267081       -1.84948421423439        0.51438644244441
C            1.41374070990268       -2.92009384729992        0.06175465318370
O            1.93802295366605       -3.75272430096005       -0.96434799496182
C            2.85896044378597       -4.66643744562226       -0.60435726877131
C            3.28919869634207       -5.49917478562640       -1.77705910087983
O            3.26817286907329       -4.78111484988114        0.51758003920131
C            0.09245553726466       -2.31233509057390       -0.42043934418786
O           -0.87048777895284       -3.36709298928458       -0.51219267804456
C           -1.00497259925797       -4.01762245817940       -1.68789838979874
C           -1.93794611315366       -5.18615190063179       -1.54114991860815
O           -0.44007456770293       -3.69902798840989       -2.69256472186421
C           -0.46181407755190       -1.26920614546161        0.57310873109524
O           -1.40355408372112       -0.42442115533133       -0.08541812423124
C           -2.74615989101530       -0.84748398676475       -0.02701217033899
C           -3.54887791815046       -0.28494848444039       -1.22097955150763
O           -2.89627368772833       -0.52386163672888       -2.46071643160779
C           -3.04210285818096       -1.74318928542340       -3.01067488026900
C           -2.39856817713774       -1.81101278393316       -4.36421657216066
O           -3.63023515700700       -2.63993968985815       -2.47076977822640
C           -3.81286027304464        1.21633987682118       -1.09623402176316
O           -4.74377876566287        1.56045735932455       -2.12263594933793
C           -4.64241297279426        2.77100658403232       -2.69864262132512
C           -5.69796364716918        2.94716921945158       -3.75505616841762
O           -3.82043377964339        3.58920291236530       -2.39985827741396
C           -4.40330796961740        1.52409488553431        0.28966261010850
O           -4.46513403032612        2.92797134046867        0.50720231726735
C           -5.61045200372198        3.57229700317169        0.21958562969073
C           -5.47357410979616        5.04386691034104        0.49165874100879
O           -6.59787288970574        3.03174901686582       -0.19184992013773
C           -3.48604872735551        0.92391826546052        1.36542266513133
C           -4.02967088803236        1.16262496347329        2.77821800218478
O           -5.32185339490264        0.60376739195335        2.94764841584206
C           -5.41521466213481       -0.56763070571159        3.60353500135349
C           -6.84393950681244       -1.03927115892274        3.63867422440280
O           -4.48685297599297       -1.12837692470725        4.11003673652469
O           -3.35357791498039       -0.48039693084846        1.18024136662760
C            0.64806991285937       -0.35700926530026        1.13862129650083
C            0.19904955769036        0.32972223191931        2.43470881212742
O            1.02821326121665        1.44075937473869        2.74623785357986
C            0.64872826151267        2.64157028799439        2.26862075172018
C            1.63255252248146        3.71046395498579        2.65567145388274
O           -0.35115905724978        2.80954311213791        1.62916432184095
O            1.83418731057335       -1.05115826943142        1.49856927431787
C            4.24186098898452        1.01904859943536        0.86686145860222
O            4.74976623135671        2.22520486051405        0.32240278344265
C            6.12417383510543        2.07309270744695        0.53530391609513
O            6.28005869376153        1.51705320621682        1.83811788078295
C            5.01182312042107        0.98534875718689        2.19427265528150
H            9.66078502551569        0.44500623702461       -2.12792874271945
H           11.36066552553808        0.85488254297107       -2.01547510285765
H            8.65507788797637        2.13802784525690        0.71688335597002
H            6.05747197161292       -0.61938506492744       -1.59770287104953
H            5.09804180110925        0.83951655477956       -1.89018201369258
H            5.01365384675489       -0.98777708300065        0.54582246193229
H            3.26487134737166       -2.34250481476607        0.99300442767650
H            1.20541870687501       -3.54479571042630        0.94506220556266
H            3.72703225988321       -4.85637076242193       -2.53571582934501
H            4.01560354480167       -6.23823078888517       -1.45013236704462
H            2.42574567381168       -5.99172067505835       -2.21596149419733
H            0.22591509096938       -1.86086605278523       -1.41082571870107
H           -2.80981917077640       -4.89824615894124       -0.96265485666104
H           -2.24274495216397       -5.52669966749087       -2.52549337205465
H           -1.42578081919064       -5.99386980650720       -1.02182466018145
H           -0.95293744541369       -1.80023308737652        1.39883503360601
H           -2.79950996160857       -1.94367434240424       -0.05695895010671
H           -4.51566925113277       -0.80994505755097       -1.23280783915137
H           -2.91825772111577       -1.14426666668894       -5.04848220355695
H           -1.36315334389153       -1.49200504490002       -4.29381177094936
H           -2.44155938264956       -2.82994522181702       -4.73609320516372
H           -2.88925371323884        1.78831157239765       -1.24309130673971
H           -5.61533302340945        2.15424532418133       -4.49350527520911
H           -6.68072022283375        2.88526905027551       -3.29447244688749
H           -5.57262900339031        3.91460361871097       -4.23260733137802
H           -5.41749042439665        1.10813776787048        0.35770683230979
H           -5.21916316676662        5.20425059003720        1.53603060213762
H           -4.67015572393640        5.44580108235712       -0.12023997968153
H           -6.40839617564106        5.54460917461082        0.25698314396880
H           -2.50753742220771        1.41702450997706        1.27930822532086
H           -3.35352309813763        0.71281180811938        3.51338893896366
H           -4.11713127684604        2.23872250956157        2.94569719824663
H           -7.22077362779323       -1.13852038060944        2.62464087038666
H           -6.89855293650210       -1.99451567838969        4.15160217548402
H           -7.45815281160467       -0.30702634618955        4.15653529457098
H            0.87155802338335        0.40294273709803        0.37438817903301
H            0.30447407112004       -0.36874234546229        3.26738598048845
H           -0.83671915328800        0.66612514662880        2.34182902644186
H            1.25621416531783        4.67883717905217        2.34081870737587
H            2.58918212150662        3.52004293584490        2.17447797924680
H            1.78364304380886        3.69917232899739        3.73218517962114
H            3.16753667974720        1.12229665919084        1.00989221940238
H            6.59699207218897        3.06145051890915        0.48944685359796
H            5.12962934495706       -0.00378705193131        2.63481576164344
H            4.53979012278104        1.66262059612913        2.91708672867650
102
 energy: -186.307328488338 gnorm: 0.010473077054 xtb: 6.7.1 (edcfbbe)
S           11.29949858487141        2.39448616139291        0.31430459450203
C           10.15248042453395        1.58870637875466       -0.54610331514073
N           10.40884302189989        0.90098446117141       -1.66737589036839
N            8.85144237496303        1.63040281640952       -0.13823819377149
N            7.89087598793574        0.92790677758310       -0.76637587323432
C            6.66435621756528        1.09158979471334       -0.48084470617577
C            5.60055078712568        0.24913870448494       -1.11853789990928
C            4.58595520766293       -0.18154778464150       -0.04760732267406
S            3.09424380894108       -0.87411379562198       -0.88087791561302
C            2.40966601591033       -1.84487053306680        0.52603193150136
C            1.41599594181481       -2.91657497365811        0.06529628229754
O            1.94051311832024       -3.73431038959810       -0.96459723301050
C            2.85766653321489       -4.65079855116127       -0.60523223354594
C            3.28201680203252       -5.48342127437202       -1.77893107886029
O            3.25967100577310       -4.76819587026781        0.52039454382185
C            0.09694618018387       -2.30965100517668       -0.42239974719038
O           -0.86186411186943       -3.35991502832267       -0.51639510856259
C           -1.00200693328978       -4.00373181620762       -1.69558579151710
C           -1.93553855791969       -5.17101534244822       -1.54597386138350
O           -0.44757331815131       -3.66995526797809       -2.70317458679063
C           -0.45970013183178       -1.26890516238841        0.57010820173209
O           -1.39864414675594       -0.42779323191340       -0.08550369784712
C           -2.73793618074203       -0.84625240064201       -0.01726033089515
C           -3.53563072232030       -0.28518910291835       -1.21619534699674
O           -2.87887054605139       -0.52246511571637       -2.44759426554955
C           -3.02901063243165       -1.74174872433574       -2.99497508291498
C           -2.39173262532810       -1.80985861212834       -4.35056829958725
O           -3.61840616665646       -2.63506353929631       -2.44775151045560
C           -3.80261969358667        1.21478506863382       -1.09549789448403
O           -4.72899637558317        1.55355379670379       -2.12075531718168
C           -4.63650489056580        2.76866269505792       -2.68821630828747
C           -5.69598853715409        2.94191903988137       -3.74115170057170
O           -3.81366139469977        3.58706378982925       -2.38664965044722
C           -4.39707951113657        1.52226796381519        0.28869091346893
O           -4.46021262476201        2.92232936128447        0.50383645229361
C           -5.60484790048778        3.56268825938084        0.20852749979664
C           -5.46820034132608        5.03348403075302        0.48267441084641
O           -6.58947883961268        3.01548922469495       -0.20493518291966
C           -3.47699368406824        0.92721643239598        1.36372514199519
C           -4.02623719453083        1.16328404251927        2.77339629203759
O           -5.31477488378649        0.59869187788900        2.93005514195763
C           -5.40684998085785       -0.56809553079270        3.59392573643990
C           -6.83590565940092       -1.03893762624771        3.63169292431514
O           -4.47573415855082       -1.11798580740010        4.11131862241243
O           -3.34143025680072       -0.47440635670474        1.18475049076565
C            0.64993841064048       -0.35631412756276        1.13170585975284
C            0.19764084110566        0.33325012393564        2.42334753522443
O            1.02649846881669        1.44055152946414        2.72963149049654
C            0.64059192018864        2.64154508398816        2.25972999424822
C            1.62709611858042        3.70822801183421        2.64495093138199
O           -0.37394149500972        2.80859965690105        1.63954912149678
O            1.82991566990013       -1.04751790967939        1.50023029305990
C            4.23403311303613        1.01199782480463        0.86765940723244
O            4.73576196781311        2.21741983529146        0.32588022934392
C            6.10618379246695        2.07275565675913        0.53547305677261
O            6.26424953359761        1.53326149691507        1.84627052439837
C            5.00856773585122        0.97316962181055        2.19674350220387
H            9.65220783399545        0.42372506697431       -2.12918811171435
H           11.35038219502901        0.84316038888033       -2.00826284621891
H            8.65131454222222        2.15782882537228        0.70784218531961
H            6.04210648135139       -0.61862592060582       -1.60509033566798
H            5.07772591362516        0.84295894800453       -1.87465748617927
H            5.00277252782257       -0.99734570503244        0.54796007016704
H            3.26196687292539       -2.33400910911656        1.00955373591400
H            1.20996280407417       -3.54374220610019        0.94802383760143
H            3.71822919325247       -4.83919938698046       -2.53730557788468
H            4.00396688052998       -6.22568279805665       -1.45274858305832
H            2.41293365365780       -5.96638255378695       -2.21782166584604
H            0.24326116129396       -1.85873946644017       -1.41240914003154
H           -2.80334148329665       -4.87981755133943       -0.96325435823803
H           -2.24134491448733       -5.51455057390712       -2.52830733020964
H           -1.42048989247657       -5.97479704921602       -1.02322254668888
H           -0.94746065893355       -1.80712995080458        1.39359091640041
H           -2.79989198562311       -1.94302307932709       -0.03941397098123