
                                 *****************
                                 * O   R   C   A *
                                 *****************

                                            #,                                       
                                            ###                                      
                                            ####                                     
                                            #####                                    
                                            ######                                   
                                           ########,                                 
                                     ,,################,,,,,                         
                               ,,#################################,,                 
                          ,,##########################################,,             
                       ,#########################################, ''#####,          
                    ,#############################################,,   '####,        
                  ,##################################################,,,,####,       
                ,###########''''           ''''###############################       
              ,#####''   ,,,,##########,,,,          '''####'''          '####       
            ,##' ,,,,###########################,,,                        '##       
           ' ,,###''''                  '''############,,,                           
         ,,##''                                '''############,,,,        ,,,,,,###''
      ,#''                                            '''#######################'''  
     '                                                          ''''####''''         
             ,#######,   #######,   ,#######,      ##                                
            ,#'     '#,  ##    ##  ,#'     '#,    #''#        ,####,    ,#,          
            ##       ##  ##   ,#'  ##            #'  '#       #'       ,# #          
            ##       ##  #######   ##           ,######,      #####,      #          
            '#,     ,#'  ##    ##  '#,     ,#' ,#      #,     #,   #      #          
             '#######'   ##     ##  '#######'  #'      '#     '####' #    #          



                #########################################################
                #                        -***-                          #
                #          Department of theory and spectroscopy        #
                #                                                       #
                #                      Frank Neese                      #
                #                                                       #
                #     Directorship, Architecture, Infrastructure        #
                #                    SHARK, DRIVERS                     #
                #        Core code/Algorithms in most modules           #
                #                                                       #
                #        Max Planck Institute fuer Kohlenforschung      #
                #                Kaiser Wilhelm Platz 1                 #
                #                 D-45470 Muelheim/Ruhr                 #
                #                      Germany                          #
                #                                                       #
                #                  All rights reserved                  #
                #                        -***-                          #
                #########################################################


                         Program Version 6.1.1  -  RELEASE   -
                                (GIT: $487d211c$)
                          ($2025-11-21 10:33:24 +0100$)


 With contributions from (in alphabetic order):
[Max-Planck-Institut fuer Kohlenforschung]                               
  Daniel Aravena         : Magnetic Suceptibility                        
  Michael Atanasov       : Ab Initio Ligand Field Theory (pilot matlab implementation)
  Alexander A. Auer      : GIAO ZORA, VPT2 properties, NMR spectrum      
  Ute Becker             : All parallelization in ORCA, NUMFREQ, NUMCALC 
  Giovanni Bistoni       : ED, misc. LED, open-shell LED, HFLD           
  Dmytro Bykov           : pre 5.0 version of the SCF Hessian            
  Marcos Casanova-Páez   : Triplet and SCS-CIS(D). UHF-(DLPNO)-IP/EA/STEOM-CCSD. UHF-CVS-IP/STEOM-CCSD   
  Vijay G. Chilkuri      : MRCI spin determinant printing, contributions to CSF-ICE 
  Pauline Colinet        : FMM embedding                                 
  Dipayan Datta          : RHF DLPNO-CCSD density                        
  Achintya Kumar Dutta   : EOM-CC, STEOM-CC                              
  Nicolas Foglia         : Exact transition moments, OPA infrastructure, MCD improvements    
  Dmitry Ganyushin       : Spin-Orbit,Spin-Spin,Magnetic field MRCI      
  Miquel Garcia-Rates    : C-PCM and meta-GGA Hessian, CCSD/C-PCM, Gaussian charge scheme 
  Tiago L. C. Gouveia    : GS-ROHF, GS-ROCIS                             
  Yang Guo               : DLPNO-NEVPT2, F12-NEVPT2, CIM, IAO-localization        
  Andreas Hansen         : Spin unrestricted coupled pair/coupled cluster methods 
  Ingolf Harden          : AUTO-CI MPn and infrastructure                
  Benjamin Helmich-Paris : MC-RPA, TRAH-(SCF,CASSCF), AVAS, COSX integrals, SCF dyn. polar., MC-PDFT, srDFT 
  Lee Huntington         : MR-EOM, pCC                                   
  Robert Izsak           : Overlap fitted RIJCOSX, COSX-SCS-MP3, EOM     
  Riya Kayal             : Wick's Theorem for AUTO-CI, AUTO-CI UHF-CCSDT 
  Emily Kempfer          : AUTO-CI RHF CISDT and CCSDT, approximate NEVPT4
  Christian Kollmar      : KDIIS, OOCD, Brueckner-CCSD(T), CCSD density, CASPT2, CASPT2-K, improved NEVPT2 
  Axel Koslowski         : Symmetry handling                             
  Simone Kossmann        : meta-GGA functionals, TD-DFT gradient, OOMP2, (MP2 Hessian; deprecated post 5.0) 
  Lucas Lang             : DCDCAS, Hyperfine gauge corrections, ICE-SOC+SSC
  Marvin Lechner         : AUTO-CI (C++ implementation), FIC-MRCC        
  Spencer Leger          : CASSCF response                               
  Dagmar Lenk            : GEPOL surface, SMD, ORCA-2-JSON               
  Dimitrios Liakos       : Extrapolation schemes; Compound Job, Property file
  Dimitrios Manganas     : Further ROCIS development; embedding schemes. LFT, Crystal Embedding 
  Dimitrios Pantazis     : SARC Basis sets                               
  Anastasios Papadopoulos: AUTO-CI, single reference methods and gradients 
  Taras Petrenko         : pre 6.0 DFT Hessian and TD-DFT gradient,  ECA, NRVS 
  Petra Pikulova         : Analytic Raman intensities                    
  Peter Pinski           : DLPNO-MP2, DLPNO-MP2 Gradient                 
  Shashank Vittal Rao    : ES-AILFT, MagRelax                            
  Christoph Reimann      : Effective Core Potentials                     
  Marius Retegan         : Local ZFS, SOC                                
  Christoph Riplinger    : Optimizer, TS searches, QM/MM, DLPNO-CCSD(T), (RO)-DLPNO pert. Triples 
  Michael Roemelt        : Original ROCIS implementation, recursive CI coupling coefficients
  Masaaki Saitow         : Open-shell DLPNO-CCSD energy and density      
  Barbara Sandhoefer     : DKH picture change effects                    
  Yorick L. A. Schmerwitz: GMF and freeze-and-release deltaSCF, NEB S-IDPP initial path                    
  Kantharuban Sivalingam : CASSCF convergence/infrastructure, NEVPT2, NEVPT3, NEVPT4(SD), FIC-MRCI and CEPA variants
  Bernardo de Souza      : ESD, SOC TD-DFT                               
  Georgi L. Stoychev     : AutoAux, RI-MP2 NMR, DLPNO-MP2 response, X2C  
  Van Anh Tran           : RI-MP2 g-tensors                              
  Willem Van den Heuvel  : Paramagnetic NMR                              
  Zikuan Wang            : NOTCH, Electric field optimization            
  Frank Wennmohs         : Technical directorship and infrastructure     
  Hang Xu                : AUTO-CI-Response properties                   
                                                                         
[FACCTs GmbH]                                                            
  Markus Bursch, Nicolas Foglia, Miquel Garcia-Rates, Ingolf Harden, Hagen Neugebauer, Anastasios Papadopoulos, 
  Christoph Riplinger, Bernardo de Souza, Georgi L. Stoychev                                                    
                                                                 
  APM, various basis sets, CI-OPT, improved COSX, DLPNO-Multilevel,           
  DOCKER, DRACO, updates on ESD, Fragmentator, GOAT, IRC, LR-CPCM, L-BFGS, MBIS, meta-GGA TD-DFT gradient, ML-optimized integration grids, 
  MM, NACMEs, nearIR, NEB, NEB-TS, NL-DFT gradient (VV10), 2- and 3-layer-ONIOM, interface openCOSMO-RS, QMMM,   
  Crystal-QMMM, RESP, rigid body optimization, SF, symmetry and pop. for TD-DFT, various functionals, SOLVATOR                                   
                                                                         
[Other institutions]                                                     
  V. Asgeirsson          : NEB                                           
  Christoph Bannwarth    : sTDA-DFT, sTD-DFT, PBEh-3c, B97-3c, D3        
  Giovanni Bistoni       : ETS/NOCV, ADLD/ADEX, COVALED                  
  Martin Brehm           : Molecular dynamics                            
  Ronald Cardenas        : ETS/NOCV                                      
  Martina Colucci        : COVALED                                       
  Sebastian Ehlert       : rSCAN, r2SCAN, r2SCAN-3c, D4, dhf basis sets  
  Marvin Friede          : D4 for Fr, Ra, Ac-Lr                          
  Lars Goerigk           : TD-DFT with DH, B97 family of functionals     
  Stefan Grimme          : VdW corrections, initial TS optimization, DFT functionals, gCP, sTDA/sTD-DF 
  Waldemar Hujo          : DFT-NL                                        
  H. Jonsson             : NEB                                           
  Holger Kruse           : gCP                                           
  Marcel Mueller         : wB97X-3c, vDZP basis set                      
  Hagen Neugebauer       : wr2SCAN, Native XTB                           
  Gianluca Regni         : ADLD/ADEX                                     
  Tobias Risthaus        : pre 6.0 range-separated hybrid DFT and stability analysis
  Lukas Wittmann         : regularized MP2, r2SCAN double-hybrids, wr2SCAN        
                                                                         
We gratefully acknowledge several colleagues who have allowed us to      
interface, adapt or use parts of their codes:                            
  Ed Valeev, F. Pavosevic, A. Kumar             : LibInt (2-el integral package), F12 methods 
  Garnet Chan, S. Sharma, J. Yang, R. Olivares  : DMRG                   
  Ulf Ekstrom                                   : XCFun DFT Library      
  Mihaly Kallay                                 : mrcc  (arbitrary order and MRCC methods)
  Frank Weinhold                                : gennbo (NPA and NBO analysis)           
  Simon Mueller                                 : openCOSMO-RS                            
  Christopher J. Cramer and Donald G. Truhlar   : smd solvation model                     
  S Lehtola, MJT Oliveira, MAL Marques          : LibXC Library                           
  Liviu Ungur et al                             : ANISO software                          


 Your calculation uses the libint2 library for the computation of 2-el integrals
 For citations please refer to: http://libint.valeyev.net

 Your ORCA version has been built with support for libXC version: 7.0.0
 For citations please refer to: https://libxc.gitlab.io

 This ORCA versions uses:
   CBLAS   interface :  Fast vector & matrix operations
   LAPACKE interface :  Fast linear algebra routines
   SCALAPACK package :  Parallel linear algebra routines
   Shared memory     :  Shared parallel matrices
   BLAS/LAPACK       :  OpenBLAS 0.3.29  USE64BITINT DYNAMIC_ARCH NO_AFFINITY SkylakeX SINGLE_THREADED
        Core in use  :  SkylakeX
   Copyright (c) 2011-2014, The OpenBLAS Project


  ***********************************
  * Starting time: Sun Jul 12 08:23:39 2026
  * Host name:     tomasz-Precision-5820-Tower
  * Process ID:    770805
  * Working dir.:  /data/BIOFILM_INSILICO_SUPPORT/01_qm_orca_xtb/compound_09/outputs
  ***********************************

NOTE: MaxCore=3000 MB was set to SCF,MP2,MDCI,CIPSI,MRCI,RASCI and CIS
      => If you want to overwrite this, your respective input block should be placed after the MaxCore statement


***************************************
The coordinates will be read from file: ../inputs/compound_09_wb97xd3_def2svp_cpcm_water_opt.xyz
***************************************


Your calculation utilizes the atom-pairwise dispersion correction
with the zero-damping scheme (D30)


XCFun DFT library Copyright 2009-2010 Ulf Ekstrom and contributors.
See http://admol.org/xcfun for more information.
This is free software; see the source code for copying conditions.
There is ABSOLUTELY NO WARRANTY; not even for MERCHANTABILITY or FITNESS FOR A PARTICULAR PURPOSE.
For details see the documentation.
Scientific users of this library should cite U. Ekstrom, L. Visscher, R. Bast, A. J. Thorvaldsen and K. Ruud;
J.Chem.Theor.Comp. 2010, DOI: 10.1021/ct100117s
XCFun Version 0.99 

Warning: RI is on but no J-basis has been assigned. Assigning Def2/J (nothing to worry about!)
================================================================================

----- Orbital basis set information -----
Your calculation utilizes the basis: def2-SVP
   F. Weigend and R. Ahlrichs, Phys. Chem. Chem. Phys. 7, 3297 (2005).

----- AuxJ basis set information -----
Your calculation utilizes the auxiliary basis: def2/J
   H-Rn: F. Weigend, Phys. Chem. Chem. Phys. 8, 1057 (2006).
   Fr-Lr: K. Eichkorn, F. Weigend, O. Treutler, R. Ahlrichs; Theor. Chem. Acc. 97, 119 (1997).

================================================================================
                                        WARNINGS
                       Please study these warnings very carefully!
================================================================================


================================================================================
                                       INPUT FILE
================================================================================
NAME = compound_09_wb97xd3_def2svp_cpcm_water_freq.inp
|  1> ! wB97X-D3 def2-SVP CPCM(Water) TightSCF Freq
|  2> %pal
|  3>   nprocs 8
|  4> end
|  5> %maxcore 3000
|  6> * xyzfile 0 1 ../inputs/compound_09_wb97xd3_def2svp_cpcm_water_opt.xyz
|  7> 
|  8>                          ****END OF INPUT****
================================================================================

                       ****************************
                       * Single Point Calculation *
                       ****************************

---------------------------------
CARTESIAN COORDINATES (ANGSTROEM)
---------------------------------
  S      6.190131   -2.901646    1.730530
  C      5.050184   -1.663722    1.640610
  N      4.326749   -1.241821    2.676185
  N      4.831108   -1.037222    0.450058
  N      3.991119    0.019366    0.397817
  C      3.695847    0.591789   -0.701252
  C      2.761791    1.768729   -0.672183
  C      1.655075    1.590202   -1.723482
  S      0.413152    0.339758   -1.227780
  C     -0.268869    1.125844    0.271585
  C     -1.030514    0.077176    1.113555
  O     -0.366030   -1.176234    1.166254
  C      0.812572   -1.271355    1.797147
  C      1.420418   -2.626875    1.617226
  O      1.312260   -0.344381    2.391848
  C     -2.408055   -0.213694    0.537233
  O     -3.141285   -0.975575    1.484679
  C     -3.555261   -2.211803    1.146752
  C     -4.300776   -2.851800    2.277557
  O     -3.342439   -2.710963    0.071043
  C     -3.158218    1.070955    0.242706
  O     -4.341305    0.706714   -0.455630
  C     -5.442863    1.458811   -0.276260
  C     -6.601266    0.913071   -1.054019
  O     -5.456691    2.440500    0.423053
  C     -2.295453    1.990652   -0.615793
  O     -1.070554    2.245745    0.036457
  C      2.277302    1.077495   -3.032194
  O      2.910652   -0.177106   -2.787019
  C      4.089152    0.192371   -2.121114
  O      4.575470    1.321793   -2.805964
  C      3.474732    1.919579   -3.490688
  H      3.550321   -0.595398    2.540075
  H      4.429338   -1.719020    3.562282
  H      5.374413   -1.361050   -0.347427
  H      2.370394    1.902088    0.343679
  H      3.328572    2.684061   -0.911132
  H      1.137212    2.542500   -1.909976
  H      0.573514    1.488601    0.870392
  H     -1.135062    0.486869    2.130973
  H      2.079068   -2.860568    2.460853
  H      2.026646   -2.595227    0.697610
  H      0.647363   -3.394272    1.493507
  H     -2.304793   -0.797371   -0.390233
  H     -5.185616   -2.246147    2.520099
  H     -4.603862   -3.866062    1.996821
  H     -3.661729   -2.878689    3.171294
  H     -3.424250    1.577235    1.182553
  H     -6.357471    0.926014   -2.125929
  H     -7.494181    1.518270   -0.864965
  H     -6.780625   -0.132362   -0.766805
  H     -2.130111    1.528292   -1.605140
  H     -2.792011    2.959148   -0.754992
  H      1.519696    0.936965   -3.814071
  H      4.814155   -0.629021   -2.190411
  H      3.386403    2.982190   -3.220635
  H      3.624478    1.833289   -4.577345

----------------------------
CARTESIAN COORDINATES (A.U.)
----------------------------
  NO LB      ZA    FRAG     MASS         X           Y           Z
   0 S    16.0000    0    32.060   11.697653   -5.483316    3.270228
   1 C     6.0000    0    12.011    9.543466   -3.143980    3.100304
   2 N     7.0000    0    14.007    8.176370   -2.346701    5.057256
   3 N     7.0000    0    14.007    9.129471   -1.960065    0.850486
   4 N     7.0000    0    14.007    7.542121    0.036596    0.751764
   5 C     6.0000    0    12.011    6.984139    1.118318   -1.325174
   6 C     6.0000    0    12.011    5.219029    3.342413   -1.270241
   7 C     6.0000    0    12.011    3.127638    3.005046   -3.256909
   8 S    16.0000    0    32.060    0.780743    0.642050   -2.320167
   9 C     6.0000    0    12.011   -0.508089    2.127537    0.513222
  10 C     6.0000    0    12.011   -1.947389    0.145842    2.104315
  11 O     8.0000    0    15.999   -0.691697   -2.222761    2.203901
  12 C     6.0000    0    12.011    1.535538   -2.402512    3.396115
  13 C     6.0000    0    12.011    2.684201   -4.964075    3.056114
  14 O     8.0000    0    15.999    2.479813   -0.650785    4.519938
  15 C     6.0000    0    12.011   -4.550564   -0.403823    1.015224
  16 O     8.0000    0    15.999   -5.936169   -1.843570    2.805637
  17 C     6.0000    0    12.011   -6.718470   -4.179703    2.167047
  18 C     6.0000    0    12.011   -8.127289   -5.389122    4.303959
  19 O     8.0000    0    15.999   -6.316295   -5.122978    0.134252
  20 C     6.0000    0    12.011   -5.968166    2.023812    0.458648
  21 O     8.0000    0    15.999   -8.203877    1.335496   -0.861017
  22 C     6.0000    0    12.011  -10.285521    2.756753   -0.522055
  23 C     6.0000    0    12.011  -12.474585    1.725454   -1.991807
  24 O     8.0000    0    15.999  -10.311652    4.611877    0.799455
  25 C     6.0000    0    12.011   -4.337778    3.761787   -1.163681
  26 O     8.0000    0    15.999   -2.023053    4.243843    0.068894
  27 C     6.0000    0    12.011    4.303477    2.036171   -5.730017
  28 O     8.0000    0    15.999    5.500336   -0.334681   -5.266703
  29 C     6.0000    0    12.011    7.727378    0.363529   -4.008324
  30 O     8.0000    0    15.999    8.646385    2.497826   -5.302503
  31 C     6.0000    0    12.011    6.566292    3.627480   -6.596444
  32 H     1.0000    0     1.008    6.709134   -1.125140    4.800046
  33 H     1.0000    0     1.008    8.370237   -3.248477    6.731737
  34 H     1.0000    0     1.008   10.156169   -2.572012   -0.656542
  35 H     1.0000    0     1.008    4.479396    3.594426    0.649460
  36 H     1.0000    0     1.008    6.290090    5.072141   -1.721790
  37 H     1.0000    0     1.008    2.149019    4.804628   -3.609331
  38 H     1.0000    0     1.008    1.083784    2.813049    1.644803
  39 H     1.0000    0     1.008   -2.144957    0.920050    4.026955
  40 H     1.0000    0     1.008    3.928870   -5.405690    4.650338
  41 H     1.0000    0     1.008    3.829807   -4.904268    1.318292
  42 H     1.0000    0     1.008    1.223339   -6.414244    2.822319
  43 H     1.0000    0     1.008   -4.355427   -1.506812   -0.737434
  44 H     1.0000    0     1.008   -9.799394   -4.244602    4.762297
  45 H     1.0000    0     1.008   -8.700038   -7.305798    3.773446
  46 H     1.0000    0     1.008   -6.919665   -5.439933    5.992877
  47 H     1.0000    0     1.008   -6.470894    2.980543    2.234702
  48 H     1.0000    0     1.008  -12.013879    1.749912   -4.017424
  49 H     1.0000    0     1.008  -14.161950    2.869114   -1.634546
  50 H     1.0000    0     1.008  -12.813524   -0.250127   -1.449052
  51 H     1.0000    0     1.008   -4.025327    2.888053   -3.033275
  52 H     1.0000    0     1.008   -5.276136    5.591980   -1.426728
  53 H     1.0000    0     1.008    2.871809    1.770607   -7.207549
  54 H     1.0000    0     1.008    9.097435   -1.188677   -4.139276
  55 H     1.0000    0     1.008    6.399374    5.635522   -6.086118
  56 H     1.0000    0     1.008    6.849271    3.464413   -8.649929

--------------------------------
INTERNAL COORDINATES (ANGSTROEM)
--------------------------------
 S      0   0   0     0.000000000000     0.00000000     0.00000000
 C      1   0   0     1.685235574233     0.00000000     0.00000000
 N      2   1   0     1.331831488713   123.96185098     0.00000000
 N      2   1   3     1.363052614548   119.53499529   180.06327940
 N      4   2   1     1.350810772604   119.55390526   184.86930722
 C      5   4   2     1.273893379352   121.93629682   183.96892193
 C      6   5   4     1.502828543213   118.63850258   180.49259586
 C      7   6   5     1.536855032644   110.08237659   229.04271245
 S      8   7   6     1.830765581569   112.49640128    73.98306930
 C      9   8   7     1.825151732616   100.47164781    63.00156301
 C     10   9   8     1.545548621428   109.84322443   197.21149719
 O     11  10   9     1.419631319302   112.86887235    40.74767302
 C     12  11  10     1.340214525597   119.45653469    66.50224019
 C     13  12  11     1.496424059306   111.40199845   186.16747332
 O     13  12  11     1.209396464341   122.71275904     3.98952813
 C     11  10   9     1.521305865192   111.68974315   281.92811906
 O     16  11  10     1.419769022499   108.50790297   191.04226570
 C     17  16  11     1.346785144405   118.93886152   241.55430548
 C     18  17  16     1.498034949026   110.83761770   179.68657238
 O     18  17  16     1.204824745178   123.36833821   359.58270622
 C     16  11  10     1.516514016225   111.07110460   311.07254417
 O     21  16  11     1.421281642554   106.86352896   172.12452756
 C     22  21  16     1.345828461994   118.20467390   148.00864746
 C     23  22  21     1.498211947462   111.10659704   181.56255535
 O     23  22  21     1.205381191425   122.80907899     1.82224910
 C     21  16  11     1.525524741046   109.89115427    52.30714199
 O     10   9   8     1.397197276584   114.92175884    71.67507279
 C      8   7   6     1.537128122181   109.24765849   316.43292126
 O     28   8   7     1.426627931883   109.06976749    60.24754143
 C     29  28   8     1.403141299523   102.87733266   284.11655964
 O     30  29  28     1.407521625621   105.69855871   317.88699225
 C     31  30  29     1.427522567861   107.63697473    22.60213482
 H      3   2   1     1.019425520969   120.71497235   189.74258443
 H      3   2   1     1.011637921767   118.46034012   356.82908604
 H      4   2   1     1.017854285093   116.89262115     0.51333190
 H      7   6   5     1.096791471669   109.56871630   353.89659265
 H      7   6   5     1.102801429405   109.05007485   110.04431608
 H      8   7   6     1.099924014143   110.75997740   195.64627950
 H     10   9   8     1.095341141206   107.71966101   314.38550455
 H     11  10   9     1.101779295985   107.30866058   161.82388806
 H     14  13  12     1.095508276705   110.17336825   206.73070049
 H     14  13  12     1.101911212418   107.32555691    88.72651894
 H     14  13  12     1.096274517670   111.17528973   330.46832350
 H     16  11  10     1.100697555654   109.61208373    72.06635152
 H     19  18  17     1.099356385793   109.37362056    60.68695500
 H     19  18  17     1.095171077539   109.87005277   181.67384067
 H     19  18  17     1.099031250664   109.56853362   302.98800695
 H     21  16  11     1.100184198531   110.09166632   291.14736796
 H     24  23  22     1.099361533405   109.29371631   298.77570732
 H     24  23  22     1.095127809671   109.84665669   177.95884529
 H     24  23  22     1.098904399214   109.69742813    56.51471885
 H     26  21  16     1.104500927358   109.65619379    65.36385277
 H     26  21  16     1.097237779485   110.33978472   185.29066580
 H     28   8   7     1.097746159104   111.69990927   180.09294742
 H     30  29  28     1.097777672818   109.12989792   199.66106953
 H     32  31  30     1.099941396034   110.40799439   125.78864820
 H     32  31  30     1.100315625290   109.62880440   246.15747521

---------------------------
INTERNAL COORDINATES (A.U.)
---------------------------
 S      0   0   0     0.000000000000     0.00000000     0.00000000
 C      1   0   0     3.184633706442     0.00000000     0.00000000
 N      2   1   0     2.516796770200   123.96185098     0.00000000
 N      2   1   3     2.575796147621   119.53499529   180.06327940
 N      4   2   1     2.552662418972   119.55390526   184.86930722
 C      5   4   2     2.407309610790   121.93629682   183.96892193
 C      6   5   4     2.839934372912   118.63850258   180.49259586
 C      7   6   5     2.904235119235   110.08237659   229.04271245
 S      8   7   6     3.459645564574   112.49640128    73.98306930
 C      9   8   7     3.449036927496   100.47164781    63.00156301
 C     10   9   8     2.920663621158   109.84322443   197.21149719
 O     11  10   9     2.682714404619   112.86887235    40.74767302
 C     12  11  10     2.532638414081   119.45653469    66.50224019
 C     13  12  11     2.827831652299   111.40199845   186.16747332
 O     13  12  11     2.285428104938   122.71275904     3.98952813
 C     11  10   9     2.874851451140   111.68974315   281.92811906
 O     16  11  10     2.682974625949   108.50790297   191.04226570
 C     17  16  11     2.545055084159   118.93886152   241.55430548
 C     18  17  16     2.830875792702   110.83761770   179.68657238
 O     18  17  16     2.276788807758   123.36833821   359.58270622
 C     16  11  10     2.865796168918   111.07110460   311.07254417
 O     21  16  11     2.685833063596   106.86352896   172.12452756
 C     22  21  16     2.543247216405   118.20467390   148.00864746
 C     23  22  21     2.831210271273   111.10659704   181.56255535
 O     23  22  21     2.277840338772   122.80907899     1.82224910
 C     21  16  11     2.882823971098   109.89115427    52.30714199
 O     10   9   8     2.640320207804   114.92175884    71.67507279
 C      8   7   6     2.904751183672   109.24765849   316.43292126
 O     28   8   7     2.695936086261   109.06976749    60.24754143
 C     29  28   8     2.651552783293   102.87733266   284.11655964
 O     30  29  28     2.659830399996   105.69855871   317.88699225
 C     31  30  29     2.697626703249   107.63697473    22.60213482
 H      3   2   1     1.926435048560   120.71497235   189.74258443
 H      3   2   1     1.911718618829   118.46034012   356.82908604
 H      4   2   1     1.923465843063   116.89262115     0.51333190
 H      7   6   5     2.072635507475   109.56871630   353.89659265
 H      7   6   5     2.083992681672   109.05007485   110.04431608
 H      8   7   6     2.078555154853   110.75997740   195.64627950
 H     10   9   8     2.069894780096   107.71966101   314.38550455
 H     11  10   9     2.082061129436   107.30866058   161.82388806
 H     14  13  12     2.070210620417   110.17336825   206.73070049
 H     14  13  12     2.082310415366   107.32555691    88.72651894
 H     14  13  12     2.071658605993   111.17528973   330.46832350
 H     16  11  10     2.080016936462   109.61208373    72.06635152
 H     19  18  17     2.077482492726   109.37362056    60.68695500
 H     19  18  17     2.069573406341   109.87005277   181.67384067
 H     19  18  17     2.076868076376   109.56853362   302.98800695
 H     21  16  11     2.079046832092   110.09166632   291.14736796
 H     24  23  22     2.077492220303   109.29371631   298.77570732
 H     24  23  22     2.069491641920   109.84665669   177.95884529
 H     24  23  22     2.076628361876   109.69742813    56.51471885
 H     26  21  16     2.087204267369   109.65619379    65.36385277
 H     26  21  16     2.073478907018   110.33978472   185.29066580
 H     28   8   7     2.074439605271   111.69990927   180.09294742
 H     30  29  28     2.074499157559   109.12989792   199.66106953
 H     32  31  30     2.078588001867   110.40799439   125.78864820
 H     32  31  30     2.079295192673   109.62880440   246.15747521

---------------------
BASIS SET INFORMATION
---------------------
There are 5 groups of distinct atoms

 Group   1 Type S   : 10s7p1d contracted to 4s3p1d pattern {5311/511/1}
 Group   2 Type C   : 7s4p1d contracted to 3s2p1d pattern {511/31/1}
 Group   3 Type N   : 7s4p1d contracted to 3s2p1d pattern {511/31/1}
 Group   4 Type O   : 7s4p1d contracted to 3s2p1d pattern {511/31/1}
 Group   5 Type H   : 4s1p contracted to 2s1p pattern {31/1}

Atom   0S    basis set group =>   1
Atom   1C    basis set group =>   2
Atom   2N    basis set group =>   3
Atom   3N    basis set group =>   3
Atom   4N    basis set group =>   3
Atom   5C    basis set group =>   2
Atom   6C    basis set group =>   2
Atom   7C    basis set group =>   2
Atom   8S    basis set group =>   1
Atom   9C    basis set group =>   2
Atom  10C    basis set group =>   2
Atom  11O    basis set group =>   4
Atom  12C    basis set group =>   2
Atom  13C    basis set group =>   2
Atom  14O    basis set group =>   4
Atom  15C    basis set group =>   2
Atom  16O    basis set group =>   4
Atom  17C    basis set group =>   2
Atom  18C    basis set group =>   2
Atom  19O    basis set group =>   4
Atom  20C    basis set group =>   2
Atom  21O    basis set group =>   4
Atom  22C    basis set group =>   2
Atom  23C    basis set group =>   2
Atom  24O    basis set group =>   4
Atom  25C    basis set group =>   2
Atom  26O    basis set group =>   4
Atom  27C    basis set group =>   2
Atom  28O    basis set group =>   4
Atom  29C    basis set group =>   2
Atom  30O    basis set group =>   4
Atom  31C    basis set group =>   2
Atom  32H    basis set group =>   5
Atom  33H    basis set group =>   5
Atom  34H    basis set group =>   5
Atom  35H    basis set group =>   5
Atom  36H    basis set group =>   5
Atom  37H    basis set group =>   5
Atom  38H    basis set group =>   5
Atom  39H    basis set group =>   5
Atom  40H    basis set group =>   5
Atom  41H    basis set group =>   5
Atom  42H    basis set group =>   5
Atom  43H    basis set group =>   5
Atom  44H    basis set group =>   5
Atom  45H    basis set group =>   5
Atom  46H    basis set group =>   5
Atom  47H    basis set group =>   5
Atom  48H    basis set group =>   5
Atom  49H    basis set group =>   5
Atom  50H    basis set group =>   5
Atom  51H    basis set group =>   5
Atom  52H    basis set group =>   5
Atom  53H    basis set group =>   5
Atom  54H    basis set group =>   5
Atom  55H    basis set group =>   5
Atom  56H    basis set group =>   5
---------------------------------
AUXILIARY/J BASIS SET INFORMATION
---------------------------------
There are 5 groups of distinct atoms

 Group   1 Type S   : 14s5p5d2f1g contracted to 8s4p3d1f1g pattern {71111111/2111/311/2/1}
 Group   2 Type C   : 12s5p4d2f1g contracted to 6s4p3d1f1g pattern {711111/2111/211/2/1}
 Group   3 Type N   : 12s5p4d2f1g contracted to 6s4p3d1f1g pattern {711111/2111/211/2/1}
 Group   4 Type O   : 12s5p4d2f1g contracted to 6s4p3d1f1g pattern {711111/2111/211/2/1}
 Group   5 Type H   : 5s2p1d contracted to 3s1p1d pattern {311/2/1}

Atom   0S    basis set group =>   1
Atom   1C    basis set group =>   2
Atom   2N    basis set group =>   3
Atom   3N    basis set group =>   3
Atom   4N    basis set group =>   3
Atom   5C    basis set group =>   2
Atom   6C    basis set group =>   2
Atom   7C    basis set group =>   2
Atom   8S    basis set group =>   1
Atom   9C    basis set group =>   2
Atom  10C    basis set group =>   2
Atom  11O    basis set group =>   4
Atom  12C    basis set group =>   2
Atom  13C    basis set group =>   2
Atom  14O    basis set group =>   4
Atom  15C    basis set group =>   2
Atom  16O    basis set group =>   4
Atom  17C    basis set group =>   2
Atom  18C    basis set group =>   2
Atom  19O    basis set group =>   4
Atom  20C    basis set group =>   2
Atom  21O    basis set group =>   4
Atom  22C    basis set group =>   2
Atom  23C    basis set group =>   2
Atom  24O    basis set group =>   4
Atom  25C    basis set group =>   2
Atom  26O    basis set group =>   4
Atom  27C    basis set group =>   2
Atom  28O    basis set group =>   4
Atom  29C    basis set group =>   2
Atom  30O    basis set group =>   4
Atom  31C    basis set group =>   2
Atom  32H    basis set group =>   5
Atom  33H    basis set group =>   5
Atom  34H    basis set group =>   5
Atom  35H    basis set group =>   5
Atom  36H    basis set group =>   5
Atom  37H    basis set group =>   5
Atom  38H    basis set group =>   5
Atom  39H    basis set group =>   5
Atom  40H    basis set group =>   5
Atom  41H    basis set group =>   5
Atom  42H    basis set group =>   5
Atom  43H    basis set group =>   5
Atom  44H    basis set group =>   5
Atom  45H    basis set group =>   5
Atom  46H    basis set group =>   5
Atom  47H    basis set group =>   5
Atom  48H    basis set group =>   5
Atom  49H    basis set group =>   5
Atom  50H    basis set group =>   5
Atom  51H    basis set group =>   5
Atom  52H    basis set group =>   5
Atom  53H    basis set group =>   5
Atom  54H    basis set group =>   5
Atom  55H    basis set group =>   5
Atom  56H    basis set group =>   5


           ************************************************************
           *        Program running with 8 parallel MPI-processes     *
           *              working on a common directory               *
           ************************************************************
------------------------------------------------------------------------------
                             ORCA STARTUP CALCULATIONS
                           -- RI-GTO INTEGRALS CHOSEN --
------------------------------------------------------------------------------
------------------------------------------------------------------------------
                   ___                                                        
                  /   \      - P O W E R E D   B Y -                         
                 /     \                                                     
                 |  |  |   _    _      __       _____    __    __             
                 |  |  |  | |  | |    /  \     |  _  \  |  |  /  |          
                  \  \/   | |  | |   /    \    | | | |  |  | /  /          
                 / \  \   | |__| |  /  /\  \   | |_| |  |  |/  /          
                |  |  |   |  __  | /  /__\  \  |    /   |      \           
                |  |  |   | |  | | |   __   |  |    \   |  |\   \          
                \     /   | |  | | |  |  |  |  | |\  \  |  | \   \       
                 \___/    |_|  |_| |__|  |__|  |_| \__\ |__|  \__/        
                                                                              
                      - O R C A' S   B I G   F R I E N D -                    
                                      &                                       
                       - I N T E G R A L  F E E D E R -                       
                                                                              
 v1 FN, 2020, v2 2021, v3 2022-2024                                           
------------------------------------------------------------------------------


----------------------
SHARK INTEGRAL PACKAGE
----------------------

Number of atoms                             ...     57
Number of basis functions                   ...    581
Number of shells                            ...    271
Maximum angular momentum                    ...      2
Integral batch strategy                     ... SHARK/LIBINT Hybrid
RI-J (if used) integral strategy            ... SPLIT-RIJ (Revised 2003 algorithm where possible)
Printlevel                                  ...      1
Contraction scheme used                     ... SEGMENTED contraction
Prescreening option                         ... SCHWARTZ
   Thresh                                   ... 2.500e-11
   Tcut                                     ... 2.500e-12
   Tpresel                                  ... 2.500e-12 
Coulomb Range Separation                    ... NOT USED
Exchange Range Separation                   ... Long Range
   Mu parameter                             ... 2.500e-01
   Scaling (regular/separated)              ... 1.957e-01 8.043e-01
Robust (split-)RI terms used:
  metric    (central integrals)             ... YES
  density   (r.h.s.  integrals)             ... YES
  potential (l.h.s.  integrals)             ... YES
Multipole approximations                    ... NOT USED
Finite Nucleus Model                        ... NOT USED
CABS basis                                  ... NOT available
Auxiliary Coulomb fitting basis             ... AVAILABLE
   # of basis functions in Aux-J            ...   1847
   # of shells in Aux-J                     ...    609
   Maximum angular momentum in Aux-J        ...      4
Auxiliary J/K fitting basis                 ... NOT available
Auxiliary Correlation fitting basis         ... NOT available
Auxiliary 'external' fitting basis          ... NOT available

Checking pre-screening integrals            ... done (  0.0 sec) Dimension = 271
   => SHARK Basis and OBASIS are compatible. Storing Pre-screening
Shell pair information
Shell pair cut-off parameter TPreSel        ...   2.5e-12
Total number of shell pairs                 ...     36856
Shell pairs after pre-screening             ...     22341
Total number of primitive shell pairs       ...    136492
Primitive shell pairs kept                  ...     50134
          la=0 lb=0:   6976 shell pairs
          la=1 lb=0:   8407 shell pairs
          la=1 lb=1:   2602 shell pairs
          la=2 lb=0:   2585 shell pairs
          la=2 lb=1:   1541 shell pairs
          la=2 lb=2:    230 shell pairs

Checking whether 4 symmetric matrices of dimension 581 fit in memory
:Max Core in MB      =   3000.00
 MB in use           =     30.71
 MB left             =   2969.29
 MB needed           =      5.16
 Data fit in memory  = YES
Calculating RI/J V-Matrix + Cholesky decomp.... done (  0.1 sec)
Calculating Nuclear repulsion               ... done (  0.0 sec) ENN=   3990.896751566206 Eh

Diagonalization of the overlap matrix:
Smallest eigenvalue                        ... 5.892e-04
Time for diagonalization                   ...    0.038 sec
Threshold for overlap eigenvalues          ... 1.000e-07
Number of eigenvalues below threshold      ... 0
Time for construction of square roots      ...    0.017 sec
Total time needed                          ...    0.057 sec

-------------------
DFT GRID GENERATION
-------------------

General Integration Accuracy     IntAcc      ... 4.388
Radial Grid Type                 RadialGrid  ... OptM3 with GC (2021)
Angular Grid (max. ang.)         AngularGrid ... 4 (Lebedev-302)
Angular grid pruning method      GridPruning ... 4 (adaptive)
Weight generation scheme         WeightScheme... mBecke (2022)
Basis function cutoff            BFCut       ... 1.0000e-11
Integration weight cutoff        WCut        ... 1.0000e-14
Partially contracted basis set               ... off
Rotationally invariant grid construction     ... off
Angular grids for H and He will be reduced by one unit

Total number of grid points                  ...   272715
Total number of batches                      ...     4295
Average number of points per batch           ...       63
Average number of grid points per atom       ...     4784

--------------------
COSX GRID GENERATION
--------------------

GRIDX 1
-------
General Integration Accuracy     IntAcc      ... 3.816
Radial Grid Type                 RadialGrid  ... OptM3 with GC (2021)
Angular Grid (max. ang.)         AngularGrid ... 1 (Lebedev-50)
Angular grid pruning method      GridPruning ... 4 (adaptive)
Weight generation scheme         WeightScheme... mBecke (2022)
Basis function cutoff            BFCut       ... 1.0000e-11
Integration weight cutoff        WCut        ... 1.0000e-14
Partially contracted basis set               ... on
Rotationally invariant grid construction     ... off
Angular grids for H and He will be reduced by one unit

Total number of grid points                  ...    36594
Total number of batches                      ...      322
Average number of points per batch           ...      113
Average number of grid points per atom       ...      642
UseSFitting                                  ... on

GRIDX 2
-------
General Integration Accuracy     IntAcc      ... 4.020
Radial Grid Type                 RadialGrid  ... OptM3 with GC (2021)
Angular Grid (max. ang.)         AngularGrid ... 2 (Lebedev-110)
Angular grid pruning method      GridPruning ... 4 (adaptive)
Weight generation scheme         WeightScheme... mBecke (2022)
Basis function cutoff            BFCut       ... 1.0000e-11
Integration weight cutoff        WCut        ... 1.0000e-14
Partially contracted basis set               ... on
Rotationally invariant grid construction     ... off
Angular grids for H and He will be reduced by one unit

Total number of grid points                  ...    74367
Total number of batches                      ...      612
Average number of points per batch           ...      121
Average number of grid points per atom       ...     1305
UseSFitting                                  ... on

GRIDX 3
-------
General Integration Accuracy     IntAcc      ... 4.338
Radial Grid Type                 RadialGrid  ... OptM3 with GC (2021)
Angular Grid (max. ang.)         AngularGrid ... 3 (Lebedev-194)
Angular grid pruning method      GridPruning ... 4 (adaptive)
Weight generation scheme         WeightScheme... mBecke (2022)
Basis function cutoff            BFCut       ... 1.0000e-11
Integration weight cutoff        WCut        ... 1.0000e-14
Partially contracted basis set               ... on
Rotationally invariant grid construction     ... off
Angular grids for H and He will be reduced by one unit

Total number of grid points                  ...   163151
Total number of batches                      ...     1304
Average number of points per batch           ...      125
Average number of grid points per atom       ...     2862
UseSFitting                                  ... on
Grids setup in   2.9 sec
Initializing property integral containers    ... done (  0.0 sec)

SHARK setup successfully completed in   3.3 seconds

Maximum memory used throughout the entire STARTUP-calculation: 81.3 MB


           ************************************************************
           *        Program running with 8 parallel MPI-processes     *
           *              working on a common directory               *
           ************************************************************
-------------------------------------------------------------------------------
                                 ORCA GUESS
                   Start orbitals & Density for SCF / CASSCF
-------------------------------------------------------------------------------

------------
SCF SETTINGS
------------
Hamiltonian:
 Density Functional     Method          .... DFT(GTOs)
 Exchange Functional    Exchange        .... WB97X-D3
 Correlation Functional Correlation     .... WB97X-D3
 Gradients option       PostSCFGGA      .... off
 Hybrid DFT is turned on
   Fraction HF Exchange ScalHFX         ....  0.195728
   Scaling of DF-GGA-X  ScalDFX         ....  0.000000
   Scaling of DF-GGA-C  ScalDFC         ....  1.000000
   Scaling of DF-LDA-C  ScalLDAC        ....  1.000000
   Perturbative correction              ....  0.000000
 Long-range corrected/Screened/Range-Separated Hybrid DFT is turned on
   Amount of maximum screened exact exchange              ....  0.804272
   Range separation parameter mu (erf(mu*r12)/r12)        ....  0.250000
 RI-approximation to the Coulomb term is turned on
   Number of AuxJ basis functions       .... 1847
   RIJ-COSX (HFX calculated with COS-X)).... on


General Settings:
 Integral files         IntName         .... compound_09_wb97xd3_def2svp_cpcm_water_freq
 Hartree-Fock type      HFTyp           .... RHF
 Total Charge           Charge          ....    0
 Multiplicity           Mult            ....    1
 Number of Electrons    NEL             ....  258
 Basis Dimension        Dim             ....  581
 Nuclear Repulsion      ENuc            ....   3990.8967515662 Eh

Convergence Acceleration:
 AO-DIIS                CNVDIIS         .... on
   Start iteration      DIISMaxIt       ....    12
   Startup error        DIISStart       ....  0.200000
   # of expansion vecs  DIISMaxEq       ....     5
   Bias factor          DIISBfac        ....   1.050
   Max. coefficient     DIISMaxC        ....  10.000
 MO-DIIS                CNVKDIIS        .... off
 Trust-Rad. Augm. Hess. CNVTRAH         .... auto
   Auto Start mean grad. ratio tolernc. ....  1.125000
   Auto Start start iteration           ....    50
   Auto Start num. interpolation iter.  ....    10
   Max. Number of Micro iterations      ....    24
   Max. Number of Macro iterations      .... Maxiter - #DIIS iter
   Number of Davidson start vectors     ....     2
   Converg. threshold    (grad. norm)   ....   1.000e-05
   Grad. Scal. Fac. for Micro threshold ....   0.100
   Minimum threshold for Micro iter.    ....   1.000e-02
   NR start threshold (gradient norm)   ....   1.000e-04
   Initial trust radius                 ....   0.400
   Minimum AH scaling param. (alpha)    ....   1.000
   Maximum AH scaling param. (alpha)    .... 1000.000
   Quad. conv. algorithm                .... NR
   White noise on init. David. guess    .... on
   Maximum white noise                  ....   0.010
   Pseudo random numbers                .... off
   Inactive MOs                         .... canonical
   Orbital update algorithm             .... Taylor
   Preconditioner                       .... Diag
   Full preconditioner red. dimension   ....   250
 SOSCF                 CNVSOSCF           .... on
   Start iteration     SOSCFMaxIt         ....   150
   Startup grad/error  SOSCFStart         ....  0.003300
   Hessian update      SOSCFHessUp        .... L-BFGS
   Autom. constraints  SOSCFAutoConstrain .... off
 Level Shifting         CNVShift        .... on
   Level shift para.    LevelShift      ....    0.2500
   Turn off err/grad.   ShiftErr        ....    0.0010
 Zerner damping         CNVZerner       .... off
 Static damping         CNVDamp         .... on
   Fraction old density DampFac         ....    0.7000
   Max. Damping (<1)    DampMax         ....    0.9800
   Min. Damping (>=0)   DampMin         ....    0.0000
   Turn off err/grad.   DampErr         ....    0.1000

SCF Procedure:
 Maximum # iterations   MaxIter         ....   125
 SCF integral mode      SCFMode         .... Direct
   Integral package                     .... SHARK and LIBINT hybrid scheme
 Reset frequency        DirectResetFreq ....    20
 Integral Threshold     Thresh          ....  2.500e-11 Eh
 Primitive CutOff       TCut            ....  2.500e-12 Eh

Convergence Tolerance:
 Convergence Check Mode ConvCheckMode   .... Total+1el-Energy
 Convergence forced     ConvForced      .... 0
 Energy Change          TolE            ....  1.000e-08 Eh
 1-El. energy change                    ....  1.000e-05 Eh
 Orbital Gradient       TolG            ....  1.000e-05
 Orbital Rotation angle TolX            ....  1.000e-05
 DIIS Error             TolErr          ....  5.000e-07

------------------------------
INITIAL GUESS: MODEL POTENTIAL
------------------------------
Loading Hartree-Fock densities                     ... done
Calculating cut-offs                               ... done
Initializing the effective Hamiltonian             ... done
Setting up the integral package (SHARK)            ... done
Starting the Coulomb interaction                   ... done (   0.4 sec)
Making the grid                                    ... done (   0.4 sec)
Mapping shells                                     ... done
Starting the XC term evaluation                    ... done (   0.1 sec)
  promolecular density results
     # of electrons  =    257.988039178
     EX              =   -242.422245037
     EC              =     -8.961257483
     EX+EC           =   -251.383502520
Transforming the Hamiltonian                       ... done (   0.0 sec)
Diagonalizing the Hamiltonian                      ... done (   0.0 sec)
Back transforming the eigenvectors                 ... done (   0.0 sec)
Now organizing SCF variables                       ... done
                      ------------------
                      INITIAL GUESS DONE (   1.0 sec)
                      ------------------
             **** ENERGY FILE WAS UPDATED (compound_09_wb97xd3_def2svp_cpcm_water_freq.en.tmp) ****
Finished Guess after   1.5 sec
Maximum memory used throughout the entire GUESS-calculation: 40.1 MB


           ************************************************************
           *        Program running with 8 parallel MPI-processes     *
           *              working on a common directory               *
           ************************************************************

-------------------------------------------------------------------------------------------
                                      ORCA LEAN-SCF
                              memory conserving SCF solver
-------------------------------------------------------------------------------------------

--------------------
CPCM SOLVATION MODEL
--------------------
CPCM parameters:
  Epsilon                                         ...      80.1510
  Refrac                                          ...       1.3328
  Rsolv                                           ...       1.3000
  Surface type                                    ... GAUSSIAN VDW
  Discretization scheme                           ... Constant charge density
    Threshold for H atoms                         ...       5.0000 (charges/Ang^2)
    Threshold for non-H atoms                     ...       5.0000 (charges/Ang^2)
  Epsilon function type                           ...         CPCM
Solvent:                                          ... WATER
Radii:
  Scheme                                          ... Element-dependent radii
  Radius for S  used is    4.0818 Bohr (=   2.1600 Ang.)
  Radius for C  used is    3.8550 Bohr (=   2.0400 Ang.)
  Radius for N  used is    3.5149 Bohr (=   1.8600 Ang.)
  Radius for O  used is    3.4469 Bohr (=   1.8240 Ang.)
  Radius for H  used is    2.4944 Bohr (=   1.3200 Ang.)
Calculating surface                               ...        done! (  0.0s)
Cavity surface points                             ...         4582
Cavity Volume                                     ...    3503.2333
Cavity Surface-area                               ...    1738.0679
Calculating surface distance matrix               ...        done! (  0.1s)
Performing Cholesky decomposition & store         ...        done! (  0.5s)
Overall time for CPCM initialization              ...                 0.6s

----------------------------------------D-I-I-S--------------------------------------------
Iteration    Energy (Eh)           Delta-E    RMSDP     MaxDP     DIISErr   Damp  Time(sec)
-------------------------------------------------------------------------------------------
               ***  Starting incremental Fock matrix formation  ***
    1    -2336.2766654125653076     0.00e+00  4.05e-03  7.32e-02  2.41e-01  0.700  12.0
    2    -2336.5292285684063245    -2.53e-01  2.82e-03  6.00e-02  1.18e-01  0.700   5.8
                               ***Turning on AO-DIIS***
    3    -2336.6482664796139943    -1.19e-01  1.43e-03  3.92e-02  4.73e-02  0.700   5.6
    4    -2336.7203013762655246    -7.20e-02  3.05e-03  8.38e-02  3.15e-02  0.000   5.3
    5    -2336.8775494476594758    -1.57e-01  3.02e-04  4.44e-03  4.98e-03  0.000   5.8
                              *** Initializing SOSCF ***
---------------------------------------S-O-S-C-F--------------------------------------
Iteration    Energy (Eh)           Delta-E    RMSDP     MaxDP     MaxGrad    Time(sec)
--------------------------------------------------------------------------------------
    6    -2336.8780131612511468    -4.64e-04  1.43e-04  1.96e-03  2.34e-03     5.0
               *** Restarting incremental Fock matrix formation ***
    7    -2336.8781410635019711    -1.28e-04  9.71e-05  1.55e-03  5.61e-04    12.1
    8    -2336.8781688481149104    -2.78e-05  9.13e-05  1.31e-03  2.58e-04     7.8
    9    -2336.8781721118630230    -3.26e-06  3.26e-05  4.48e-04  1.68e-04     7.6
   10    -2336.8781755300478835    -3.42e-06  5.82e-06  9.13e-05  1.89e-05     6.9
   11    -2336.8781756057305756    -7.57e-08  2.12e-06  4.68e-05  1.63e-05     5.5
   12    -2336.8781756020816829     3.65e-09  7.77e-07  1.98e-05  5.71e-06     4.1
                 **** Energy Check signals convergence ****

               *****************************************************
               *                     SUCCESS                       *
               *           SCF CONVERGED AFTER  12 CYCLES          *
               *****************************************************

Recomputing exchange energy using gridx3       ... done (   20.324 sec)
Old exchange energy                            :    -75.998196374 Eh
New exchange energy                            :    -75.998254415 Eh
Exchange energy change after final integration :     -0.000058041 Eh
Total energy after final integration           :  -2336.878233668 Eh
             **** ENERGY FILE WAS UPDATED (compound_09_wb97xd3_def2svp_cpcm_water_freq.en.tmp) ****

----------------
TOTAL SCF ENERGY
----------------

Total Energy       :      -2336.87823366798739 Eh          -63589.68958 eV

Components:
Nuclear Repulsion  :       3990.89675156620615 Eh          108597.82162 eV
Electronic Energy  :      -6327.72368612582159 Eh         -172186.11527 eV
One Electron Energy:     -11150.06811476284201 Eh         -303408.77841 eV
Two Electron Energy:       4822.34442863702043 Eh          131222.66313 eV
CPCM Dielectric    :         -0.05124106712287 Eh              -1.39434 eV

Virial components:
Potential Energy   :      -4657.62934390609553 Eh         -126740.53781 eV
Kinetic Energy     :       2320.75111023810859 Eh           63150.84824 eV
Virial Ratio       :          2.00694909650532

DFT components:
N(Alpha)           :      128.999749242075 electrons
N(Beta)            :      128.999749242075 electrons
N(Total)           :      257.999498484150 electrons
E(XC)              :     -180.146776041898 Eh       

CPCM Solvation Model Properties:
Surface-charge          :         -0.02404886463583
Corrected charge        :         -0.00000000000000
Outlying charge corr.   :          0.00002626002675 Eh               0.00071 eV
Free-energy (cav+disp)  :  This term is not implemented in the current solvation scheme

---------------
SCF CONVERGENCE
---------------

  Last Energy change         ...   -3.6489e-09  Tolerance :   1.0000e-08
  Last MAX-Density change    ...    1.9787e-05  Tolerance :   1.0000e-07
  Last RMS-Density change    ...    7.7655e-07  Tolerance :   5.0000e-09
  Last DIIS Error            ...    2.3442e-03  Tolerance :   5.0000e-07
  Last Orbital Gradient      ...    5.7091e-06  Tolerance :   1.0000e-05
  Last Orbital Rotation      ...    2.2167e-05  Tolerance :   1.0000e-05


----------------
ORBITAL ENERGIES
----------------

  NO   OCC          E(Eh)            E(eV) 
   0   2.0000     -88.941831     -2420.2303 
   1   2.0000     -88.874657     -2418.4024 
   2   2.0000     -19.303423      -525.2728 
   3   2.0000     -19.296818      -525.0931 
   4   2.0000     -19.295825      -525.0661 
   5   2.0000     -19.272955      -524.4438 
   6   2.0000     -19.272204      -524.4233 
   7   2.0000     -19.263302      -524.1811 
   8   2.0000     -19.245896      -523.7075 
   9   2.0000     -19.238328      -523.5015 
  10   2.0000     -19.237928      -523.4906 
  11   2.0000     -14.506108      -394.7313 
  12   2.0000     -14.485442      -394.1689 
  13   2.0000     -14.463377      -393.5685 
  14   2.0000     -10.439586      -284.0756 
  15   2.0000     -10.433084      -283.8986 
  16   2.0000     -10.432891      -283.8934 
  17   2.0000     -10.414444      -283.3914 
  18   2.0000     -10.408216      -283.2220 
  19   2.0000     -10.385602      -282.6066 
  20   2.0000     -10.376367      -282.3553 
  21   2.0000     -10.367123      -282.1038 
  22   2.0000     -10.363611      -282.0082 
  23   2.0000     -10.363168      -281.9961 
  24   2.0000     -10.349576      -281.6263 
  25   2.0000     -10.348864      -281.6069 
  26   2.0000     -10.348806      -281.6053 
  27   2.0000     -10.339693      -281.3574 
  28   2.0000     -10.309279      -280.5297 
  29   2.0000     -10.299367      -280.2600 
  30   2.0000     -10.297882      -280.2196 
  31   2.0000     -10.297541      -280.2103 
  32   2.0000      -8.056611      -219.2315 
  33   2.0000      -7.991686      -217.4648 
  34   2.0000      -6.016526      -163.7180 
  35   2.0000      -6.012883      -163.6189 
  36   2.0000      -6.006315      -163.4401 
  37   2.0000      -5.952690      -161.9809 
  38   2.0000      -5.945475      -161.7846 
  39   2.0000      -5.942939      -161.7156 
  40   2.0000      -1.241415       -33.7806 
  41   2.0000      -1.232977       -33.5510 
  42   2.0000      -1.232824       -33.5468 
  43   2.0000      -1.224068       -33.3086 
  44   2.0000      -1.181719       -32.1562 
  45   2.0000      -1.160676       -31.5836 
  46   2.0000      -1.143654       -31.1204 
  47   2.0000      -1.138097       -30.9692 
  48   2.0000      -1.131813       -30.7982 
  49   2.0000      -1.121973       -30.5304 
  50   2.0000      -1.055882       -28.7320 
  51   2.0000      -0.978103       -26.6155 
  52   2.0000      -0.956271       -26.0214 
  53   2.0000      -0.950043       -25.8520 
  54   2.0000      -0.920064       -25.0362 
  55   2.0000      -0.893023       -24.3004 
  56   2.0000      -0.875920       -23.8350 
  57   2.0000      -0.873160       -23.7599 
  58   2.0000      -0.853367       -23.2213 
  59   2.0000      -0.844730       -22.9863 
  60   2.0000      -0.824677       -22.4406 
  61   2.0000      -0.794631       -21.6230 
  62   2.0000      -0.788143       -21.4464 
  63   2.0000      -0.771913       -21.0048 
  64   2.0000      -0.756675       -20.5902 
  65   2.0000      -0.733057       -19.9475 
  66   2.0000      -0.729821       -19.8594 
  67   2.0000      -0.726834       -19.7782 
  68   2.0000      -0.703952       -19.1555 
  69   2.0000      -0.694414       -18.8960 
  70   2.0000      -0.678540       -18.4640 
  71   2.0000      -0.674201       -18.3459 
  72   2.0000      -0.660215       -17.9654 
  73   2.0000      -0.656007       -17.8508 
  74   2.0000      -0.639699       -17.4071 
  75   2.0000      -0.635677       -17.2976 
  76   2.0000      -0.619791       -16.8654 
  77   2.0000      -0.619054       -16.8453 
  78   2.0000      -0.603965       -16.4347 
  79   2.0000      -0.603435       -16.4203 
  80   2.0000      -0.598869       -16.2961 
  81   2.0000      -0.596890       -16.2422 
  82   2.0000      -0.592927       -16.1344 
  83   2.0000      -0.589011       -16.0278 
  84   2.0000      -0.582766       -15.8579 
  85   2.0000      -0.578120       -15.7314 
  86   2.0000      -0.574202       -15.6248 
  87   2.0000      -0.568990       -15.4830 
  88   2.0000      -0.565283       -15.3821 
  89   2.0000      -0.560510       -15.2523 
  90   2.0000      -0.558801       -15.2058 
  91   2.0000      -0.546169       -14.8620 
  92   2.0000      -0.541695       -14.7403 
  93   2.0000      -0.538154       -14.6439 
  94   2.0000      -0.528731       -14.3875 
  95   2.0000      -0.515680       -14.0324 
  96   2.0000      -0.512849       -13.9553 
  97   2.0000      -0.507327       -13.8051 
  98   2.0000      -0.505314       -13.7503 
  99   2.0000      -0.502042       -13.6613 
 100   2.0000      -0.499396       -13.5893 
 101   2.0000      -0.496400       -13.5077 
 102   2.0000      -0.493039       -13.4163 
 103   2.0000      -0.487630       -13.2691 
 104   2.0000      -0.478929       -13.0323 
 105   2.0000      -0.477539       -12.9945 
 106   2.0000      -0.471432       -12.8283 
 107   2.0000      -0.470574       -12.8050 
 108   2.0000      -0.463551       -12.6139 
 109   2.0000      -0.457057       -12.4371 
 110   2.0000      -0.454243       -12.3606 
 111   2.0000      -0.452700       -12.3186 
 112   2.0000      -0.446051       -12.1377 
 113   2.0000      -0.441094       -12.0028 
 114   2.0000      -0.429997       -11.7008 
 115   2.0000      -0.421924       -11.4811 
 116   2.0000      -0.419260       -11.4087 
 117   2.0000      -0.409212       -11.1352 
 118   2.0000      -0.399293       -10.8653 
 119   2.0000      -0.391177       -10.6445 
 120   2.0000      -0.387843       -10.5538 
 121   2.0000      -0.385240       -10.4829 
 122   2.0000      -0.383724       -10.4417 
 123   2.0000      -0.369222       -10.0471 
 124   2.0000      -0.355954        -9.6860 
 125   2.0000      -0.347341        -9.4516 
 126   2.0000      -0.336097        -9.1457 
 127   2.0000      -0.310745        -8.4558 
 128   2.0000      -0.306026        -8.3274 
 129   0.0000       0.040632         1.1056 
 130   0.0000       0.078964         2.1487 
 131   0.0000       0.088300         2.4028 
 132   0.0000       0.089644         2.4393 
 133   0.0000       0.106839         2.9072 
 134   0.0000       0.115879         3.1532 
 135   0.0000       0.133736         3.6391 
 136   0.0000       0.139159         3.7867 
 137   0.0000       0.143355         3.9009 
 138   0.0000       0.152893         4.1604 
 139   0.0000       0.160025         4.3545 
*Only the first 10 virtual orbitals were printed.

                    ********************************
                    * MULLIKEN POPULATION ANALYSIS *
                    ********************************

-----------------------
MULLIKEN ATOMIC CHARGES
-----------------------
   0 S :   -0.466026
   1 C :    0.053531
   2 N :   -0.082318
   3 N :   -0.067841
   4 N :   -0.039093
   5 C :   -0.119681
   6 C :    0.077404
   7 C :   -0.164952
   8 S :   -0.066566
   9 C :    0.038446
  10 C :    0.190660
  11 O :   -0.312421
  12 C :    0.179751
  13 C :   -0.030228
  14 O :   -0.288995
  15 C :    0.149507
  16 O :   -0.331434
  17 C :    0.164825
  18 C :   -0.030507
  19 O :   -0.287521
  20 C :    0.085190
  21 O :   -0.331340
  22 C :    0.170603
  23 C :   -0.028743
  24 O :   -0.291283
  25 C :    0.261267
  26 O :   -0.391110
  27 C :    0.027532
  28 O :   -0.384150
  29 C :    0.309228
  30 O :   -0.414732
  31 C :    0.262745
  32 H :    0.163886
  33 H :    0.178248
  34 H :    0.169393
  35 H :    0.058549
  36 H :    0.089599
  37 H :    0.102044
  38 H :    0.084291
  39 H :    0.076750
  40 H :    0.074588
  41 H :    0.093626
  42 H :    0.080144
  43 H :    0.055599
  44 H :    0.089579
  45 H :    0.069739
  46 H :    0.087878
  47 H :    0.060120
  48 H :    0.090724
  49 H :    0.069878
  50 H :    0.087847
  51 H :    0.034488
  52 H :    0.064748
  53 H :    0.080839
  54 H :    0.061745
  55 H :    0.066728
  56 H :    0.067219
Sum of atomic charges:   -0.0000000

--------------------------------
MULLIKEN REDUCED ORBITAL CHARGES
--------------------------------
  0 S s       :     5.941219  s :     5.941219
      pz      :     3.853610  p :    10.476100
      px      :     3.346275
      py      :     3.276215
      dz2     :     0.008715  d :     0.048707
      dxz     :     0.002736
      dyz     :     0.002971
      dx2y2   :     0.010363
      dxy     :     0.023922

  1 C s       :     3.096534  s :     3.096534
      pz      :     0.934795  p :     2.756699
      px      :     0.917924
      py      :     0.903981
      dz2     :     0.018500  d :     0.093236
      dxz     :     0.023599
      dyz     :     0.025803
      dx2y2   :     0.016805
      dxy     :     0.008529

  2 N s       :     3.308071  s :     3.308071
      pz      :     1.093079  p :     3.759529
      px      :     1.309583
      py      :     1.356868
      dz2     :     0.003652  d :     0.014718
      dxz     :     0.003338
      dyz     :     0.004065
      dx2y2   :     0.001452
      dxy     :     0.002212

  3 N s       :     3.337287  s :     3.337287
      pz      :     1.122672  p :     3.698766
      px      :     1.337527
      py      :     1.238567
      dz2     :     0.005863  d :     0.031787
      dxz     :     0.006454
      dyz     :     0.008148
      dx2y2   :     0.005265
      dxy     :     0.006057

  4 N s       :     3.482500  s :     3.482500
      pz      :     1.431465  p :     3.517497
      px      :     1.094045
      py      :     0.991987
      dz2     :     0.009465  d :     0.039096
      dxz     :     0.006755
      dyz     :     0.006296
      dx2y2   :     0.008055
      dxy     :     0.008525

  5 C s       :     3.097140  s :     3.097140
      pz      :     0.968946  p :     2.962242
      px      :     0.977568
      py      :     1.015729
      dz2     :     0.018138  d :     0.060300
      dxz     :     0.013038
      dyz     :     0.014531
      dx2y2   :     0.007011
      dxy     :     0.007581

  6 C s       :     2.971957  s :     2.971957
      pz      :     1.007507  p :     2.917658
      px      :     0.920006
      py      :     0.990145
      dz2     :     0.008119  d :     0.032982
      dxz     :     0.006928
      dyz     :     0.003116
      dx2y2   :     0.005070
      dxy     :     0.009749

  7 C s       :     3.156039  s :     3.156039
      pz      :     1.008550  p :     2.966084
      px      :     0.925755
      py      :     1.031779
      dz2     :     0.008954  d :     0.042830
      dxz     :     0.009634
      dyz     :     0.006556
      dx2y2   :     0.006712
      dxy     :     0.010973

  8 S s       :     5.875183  s :     5.875183
      pz      :     3.312009  p :    10.111133
      px      :     3.391096
      py      :     3.408028
      dz2     :     0.016233  d :     0.080249
      dxz     :     0.014371
      dyz     :     0.019697
      dx2y2   :     0.008184
      dxy     :     0.021765

  9 C s       :     3.088571  s :     3.088571
      pz      :     0.947733  p :     2.799511
      px      :     0.989781
      py      :     0.861997
      dz2     :     0.011251  d :     0.073472
      dxz     :     0.012256
      dyz     :     0.016745
      dx2y2   :     0.012252
      dxy     :     0.020968

 10 C s       :     3.014484  s :     3.014484
      pz      :     1.050788  p :     2.730195
      px      :     0.930125
      py      :     0.749282
      dz2     :     0.011426  d :     0.064661
      dxz     :     0.007775
      dyz     :     0.013415
      dx2y2   :     0.014289
      dxy     :     0.017755

 11 O s       :     3.728396  s :     3.728396
      pz      :     1.678248  p :     4.567867
      px      :     1.387303
      py      :     1.502316
      dz2     :     0.002567  d :     0.016158
      dxz     :     0.003580
      dyz     :     0.001772
      dx2y2   :     0.005196
      dxy     :     0.003042

 12 C s       :     3.099767  s :     3.099767
      pz      :     0.785218  p :     2.582209
      px      :     0.805494
      py      :     0.991497
      dz2     :     0.022176  d :     0.138273
      dxz     :     0.026220
      dyz     :     0.019310
      dx2y2   :     0.042158
      dxy     :     0.028408

 13 C s       :     2.983221  s :     2.983221
      pz      :     1.053557  p :     3.023921
      px      :     1.031625
      py      :     0.938739
      dz2     :     0.005051  d :     0.023086
      dxz     :     0.005902
      dyz     :     0.001704
      dx2y2   :     0.003690
      dxy     :     0.006740

 14 O s       :     3.750306  s :     3.750306
      pz      :     1.431692  p :     4.520895
      px      :     1.612556
      py      :     1.476647
      dz2     :     0.003288  d :     0.017793
      dxz     :     0.001971
      dyz     :     0.004956
      dx2y2   :     0.003228
      dxy     :     0.004350

 15 C s       :     3.044393  s :     3.044393
      pz      :     0.913424  p :     2.741141
      px      :     0.897571
      py      :     0.930146
      dz2     :     0.010945  d :     0.064958
      dxz     :     0.013184
      dyz     :     0.016199
      dx2y2   :     0.011598
      dxy     :     0.013032

 16 O s       :     3.734960  s :     3.734960
      pz      :     1.621017  p :     4.580588
      px      :     1.626782
      py      :     1.332789
      dz2     :     0.002887  d :     0.015886
      dxz     :     0.003035
      dyz     :     0.004191
      dx2y2   :     0.003190
      dxy     :     0.002582

 17 C s       :     3.093073  s :     3.093073
      pz      :     0.958694  p :     2.604252
      px      :     0.821317
      py      :     0.824241
      dz2     :     0.033310  d :     0.137849
      dxz     :     0.026014
      dyz     :     0.036649
      dx2y2   :     0.022524
      dxy     :     0.019352

 18 C s       :     2.986349  s :     2.986349
      pz      :     0.981216  p :     3.021051
      px      :     1.026735
      py      :     1.013099
      dz2     :     0.003849  d :     0.023107
      dxz     :     0.006622
      dyz     :     0.004038
      dx2y2   :     0.003538
      dxy     :     0.005061

 19 O s       :     3.733553  s :     3.733553
      pz      :     1.374884  p :     4.535646
      px      :     1.508070
      py      :     1.652692
      dz2     :     0.006405  d :     0.018322
      dxz     :     0.004398
      dyz     :     0.005308
      dx2y2   :     0.000884
      dxy     :     0.001328

 20 C s       :     3.053847  s :     3.053847
      pz      :     0.998560  p :     2.795484
      px      :     0.799444
      py      :     0.997479
      dz2     :     0.010426  d :     0.065479
      dxz     :     0.016986
      dyz     :     0.009895
      dx2y2   :     0.013081
      dxy     :     0.015092

 21 O s       :     3.734785  s :     3.734785
      pz      :     1.683157  p :     4.580591
      px      :     1.239942
      py      :     1.657493
      dz2     :     0.002259  d :     0.015963
      dxz     :     0.003804
      dyz     :     0.002133
      dx2y2   :     0.002537
      dxy     :     0.005230

 22 C s       :     3.092281  s :     3.092281
      pz      :     0.851955  p :     2.599270
      px      :     0.899089
      py      :     0.848226
      dz2     :     0.023136  d :     0.137846
      dxz     :     0.024448
      dyz     :     0.018746
      dx2y2   :     0.028260
      dxy     :     0.043255

 23 C s       :     2.985370  s :     2.985370
      pz      :     1.025465  p :     3.020296
      px      :     0.960385
      py      :     1.034446
      dz2     :     0.005553  d :     0.023076
      dxz     :     0.005174
      dyz     :     0.002210
      dx2y2   :     0.004770
      dxy     :     0.005369

 24 O s       :     3.736691  s :     3.736691
      pz      :     1.407923  p :     4.536308
      px      :     1.757965
      py      :     1.370420
      dz2     :     0.003868  d :     0.018284
      dxz     :     0.001407
      dyz     :     0.006093
      dx2y2   :     0.004241
      dxy     :     0.002675

 25 C s       :     2.963261  s :     2.963261
      pz      :     0.962734  p :     2.715516
      px      :     0.745970
      py      :     1.006812
      dz2     :     0.011366  d :     0.059956
      dxz     :     0.015853
      dyz     :     0.007935
      dx2y2   :     0.012338
      dxy     :     0.012464

 26 O s       :     3.757738  s :     3.757738
      pz      :     1.727660  p :     4.616781
      px      :     1.353273
      py      :     1.535848
      dz2     :     0.002313  d :     0.016591
      dxz     :     0.002849
      dyz     :     0.002350
      dx2y2   :     0.004178
      dxy     :     0.004900

 27 C s       :     3.146329  s :     3.146329
      pz      :     0.989668  p :     2.758461
      px      :     0.996581
      py      :     0.772212
      dz2     :     0.011122  d :     0.067678
      dxz     :     0.012965
      dyz     :     0.012569
      dx2y2   :     0.012570
      dxy     :     0.018451

 28 O s       :     3.780119  s :     3.780119
      pz      :     1.711826  p :     4.586729
      px      :     1.385033
      py      :     1.489870
      dz2     :     0.002460  d :     0.017302
      dxz     :     0.002825
      dyz     :     0.002667
      dx2y2   :     0.004809
      dxy     :     0.004541

 29 C s       :     3.035833  s :     3.035833
      pz      :     0.850280  p :     2.553153
      px      :     0.823706
      py      :     0.879166
      dz2     :     0.023554  d :     0.101787
      dxz     :     0.020514
      dyz     :     0.017705
      dx2y2   :     0.018320
      dxy     :     0.021693

 30 O s       :     3.755498  s :     3.755498
      pz      :     1.626645  p :     4.643124
      px      :     1.570110
      py      :     1.446369
      dz2     :     0.002309  d :     0.016110
      dxz     :     0.003503
      dyz     :     0.002103
      dx2y2   :     0.003895
      dxy     :     0.004299

 31 C s       :     2.981141  s :     2.981141
      pz      :     0.964374  p :     2.698278
      px      :     0.762885
      py      :     0.971019
      dz2     :     0.014833  d :     0.057837
      dxz     :     0.012632
      dyz     :     0.006218
      dx2y2   :     0.011180
      dxy     :     0.012974

 32 H s       :     0.788606  s :     0.788606
      pz      :     0.007888  p :     0.047508
      px      :     0.022112
      py      :     0.017508

 33 H s       :     0.777023  s :     0.777023
      pz      :     0.022418  p :     0.044729
      px      :     0.008846
      py      :     0.013466

 34 H s       :     0.787763  s :     0.787763
      pz      :     0.019264  p :     0.042844
      px      :     0.014493
      py      :     0.009087

 35 H s       :     0.918232  s :     0.918232
      pz      :     0.013730  p :     0.023219
      px      :     0.005303
      py      :     0.004187

 36 H s       :     0.886814  s :     0.886814
      pz      :     0.004992  p :     0.023587
      px      :     0.007001
      py      :     0.011594

 37 H s       :     0.877070  s :     0.877070
      pz      :     0.003262  p :     0.020886
      px      :     0.005608
      py      :     0.012016

 38 H s       :     0.894062  s :     0.894062
      pz      :     0.007508  p :     0.021646
      px      :     0.010773
      py      :     0.003365

 39 H s       :     0.902427  s :     0.902427
      pz      :     0.014119  p :     0.020823
      px      :     0.002650
      py      :     0.004054

 40 H s       :     0.901327  s :     0.901327
      pz      :     0.011141  p :     0.024085
      px      :     0.008687
      py      :     0.004257

 41 H s       :     0.881143  s :     0.881143
      pz      :     0.012245  p :     0.025231
      px      :     0.008323
      py      :     0.004663

 42 H s       :     0.895907  s :     0.895907
      pz      :     0.004846  p :     0.023948
      px      :     0.009802
      py      :     0.009301

 43 H s       :     0.921999  s :     0.921999
      pz      :     0.012138  p :     0.022402
      px      :     0.002929
      py      :     0.007335

 44 H s       :     0.885683  s :     0.885683
      pz      :     0.005373  p :     0.024739
      px      :     0.011685
      py      :     0.007681

 45 H s       :     0.906876  s :     0.906876
      pz      :     0.004647  p :     0.023385
      px      :     0.005085
      py      :     0.013653

 46 H s       :     0.887488  s :     0.887488
      pz      :     0.011713  p :     0.024634
      px      :     0.008239
      py      :     0.004683

 47 H s       :     0.918618  s :     0.918618
      pz      :     0.011968  p :     0.021262
      px      :     0.003154
      py      :     0.006139

 48 H s       :     0.884515  s :     0.884515
      pz      :     0.014857  p :     0.024762
      px      :     0.004794
      py      :     0.005111

 49 H s       :     0.906700  s :     0.906700
      pz      :     0.004589  p :     0.023421
      px      :     0.011137
      py      :     0.007695

 50 H s       :     0.887524  s :     0.887524
      pz      :     0.005626  p :     0.024630
      px      :     0.004625
      py      :     0.014379

 51 H s       :     0.943073  s :     0.943073
      pz      :     0.013170  p :     0.022440
      px      :     0.003004
      py      :     0.006266

 52 H s       :     0.913487  s :     0.913487
      pz      :     0.004117  p :     0.021765
      px      :     0.004846
      py      :     0.012802

 53 H s       :     0.898561  s :     0.898561
      pz      :     0.009436  p :     0.020599
      px      :     0.009014
      py      :     0.002149

 54 H s       :     0.918051  s :     0.918051
      pz      :     0.002852  p :     0.020204
      px      :     0.007840
      py      :     0.009512

 55 H s       :     0.911086  s :     0.911086
      pz      :     0.004459  p :     0.022186
      px      :     0.002965
      py      :     0.014762

 56 H s       :     0.911082  s :     0.911082
      pz      :     0.014836  p :     0.021699
      px      :     0.002916
      py      :     0.003947



                     *******************************
                     * LOEWDIN POPULATION ANALYSIS *
                     *******************************

----------------------
LOEWDIN ATOMIC CHARGES
----------------------
   0 S :   -0.321767
   1 C :   -0.061864
   2 N :    0.029721
   3 N :    0.039384
   4 N :   -0.048126
   5 C :   -0.033659
   6 C :   -0.041718
   7 C :   -0.130178
   8 S :    0.216485
   9 C :   -0.054006
  10 C :    0.048463
  11 O :   -0.083679
  12 C :    0.114875
  13 C :   -0.080003
  14 O :   -0.209337
  15 C :    0.054465
  16 O :   -0.090063
  17 C :    0.108392
  18 C :   -0.079698
  19 O :   -0.216163
  20 C :    0.050985
  21 O :   -0.091910
  22 C :    0.111063
  23 C :   -0.079391
  24 O :   -0.217861
  25 C :    0.070536
  26 O :   -0.160437
  27 C :    0.042801
  28 O :   -0.163163
  29 C :    0.131463
  30 O :   -0.186312
  31 C :    0.084397
  32 H :    0.073508
  33 H :    0.102335
  34 H :    0.086899
  35 H :    0.039980
  36 H :    0.056329
  37 H :    0.042499
  38 H :    0.028424
  39 H :    0.043969
  40 H :    0.050264
  41 H :    0.065584
  42 H :    0.053368
[...]
170:   3725.03   0.047287  238.97  0.003961  (-0.024592  0.030717 -0.049123)

* The epsilon (eps) is given for a Dirac delta lineshape.
** The dipole moment derivative (T) already includes vibrational overlap.

The first frequency considered to be a vibration is 6
The total number of vibrations considered is 165


--------------------------
THERMOCHEMISTRY AT 298.15K
--------------------------

Temperature         ...   298.15 K
Pressure            ...     1.00 atm
Total Mass          ...   491.53 AMU
Quasi RRHO          ...     True
Cut-Off Frequency   ...     1.00 cm^-1

Throughout the following assumptions are being made:
  (1) The electronic state is orbitally nondegenerate
  (2) There are no thermally accessible electronically excited states
  (3) Hindered rotations indicated by low frequency modes are not
      treated as such but are treated as vibrations and this may
      cause some error
  (4) All equations used are the standard statistical mechanics
      equations for an ideal gas
  (5) All vibrations are strictly harmonic

freq.      18.41  E(vib)   ...       0.57 
freq.      20.33  E(vib)   ...       0.56 
freq.      22.49  E(vib)   ...       0.56 
freq.      29.05  E(vib)   ...       0.55 
freq.      35.08  E(vib)   ...       0.54 
freq.      38.11  E(vib)   ...       0.54 
freq.      43.23  E(vib)   ...       0.53 
freq.      52.60  E(vib)   ...       0.52 
freq.      60.15  E(vib)   ...       0.51 
freq.      66.93  E(vib)   ...       0.50 
freq.      80.55  E(vib)   ...       0.48 
freq.      87.01  E(vib)   ...       0.48 
freq.      88.86  E(vib)   ...       0.47 
freq.     100.36  E(vib)   ...       0.46 
freq.     107.62  E(vib)   ...       0.45 
freq.     109.26  E(vib)   ...       0.45 
freq.     111.67  E(vib)   ...       0.45 
freq.     121.85  E(vib)   ...       0.44 
freq.     135.69  E(vib)   ...       0.42 
freq.     139.30  E(vib)   ...       0.42 
freq.     159.11  E(vib)   ...       0.39 
freq.     184.76  E(vib)   ...       0.37 
freq.     210.46  E(vib)   ...       0.34 
freq.     221.43  E(vib)   ...       0.33 
freq.     237.99  E(vib)   ...       0.32 
freq.     241.67  E(vib)   ...       0.31 
freq.     254.20  E(vib)   ...       0.30 
freq.     257.61  E(vib)   ...       0.30 
freq.     261.36  E(vib)   ...       0.30 
freq.     279.39  E(vib)   ...       0.28 
freq.     317.17  E(vib)   ...       0.25 
freq.     332.65  E(vib)   ...       0.24 
freq.     350.00  E(vib)   ...       0.23 
freq.     360.64  E(vib)   ...       0.22 
freq.     378.97  E(vib)   ...       0.21 
freq.     398.67  E(vib)   ...       0.19 
freq.     412.88  E(vib)   ...       0.19 
freq.     444.58  E(vib)   ...       0.17 
freq.     454.10  E(vib)   ...       0.16 
freq.     474.45  E(vib)   ...       0.15 
freq.     481.52  E(vib)   ...       0.15 
freq.     496.26  E(vib)   ...       0.14 
freq.     521.45  E(vib)   ...       0.13 
freq.     524.46  E(vib)   ...       0.13 
freq.     526.00  E(vib)   ...       0.13 
freq.     535.80  E(vib)   ...       0.12 
freq.     557.94  E(vib)   ...       0.12 
freq.     576.17  E(vib)   ...       0.11 
freq.     581.90  E(vib)   ...       0.11 
freq.     603.34  E(vib)   ...       0.10 
freq.     608.98  E(vib)   ...       0.10 
freq.     611.04  E(vib)   ...       0.10 
freq.     620.20  E(vib)   ...       0.09 
freq.     627.77  E(vib)   ...       0.09 
freq.     656.66  E(vib)   ...       0.08 
freq.     664.91  E(vib)   ...       0.08 
freq.     677.60  E(vib)   ...       0.08 
freq.     693.08  E(vib)   ...       0.07 
freq.     707.54  E(vib)   ...       0.07 
freq.     714.63  E(vib)   ...       0.07 
freq.     748.56  E(vib)   ...       0.06 
freq.     794.55  E(vib)   ...       0.05 
freq.     803.69  E(vib)   ...       0.05 
freq.     834.42  E(vib)   ...       0.04 
freq.     861.05  E(vib)   ...       0.04 
freq.     882.25  E(vib)   ...       0.04 
freq.     917.46  E(vib)   ...       0.03 
freq.     920.15  E(vib)   ...       0.03 
freq.     939.63  E(vib)   ...       0.03 
freq.     959.05  E(vib)   ...       0.03 
freq.     962.23  E(vib)   ...       0.03 
freq.     967.73  E(vib)   ...       0.03 
freq.     979.71  E(vib)   ...       0.03 
freq.     995.97  E(vib)   ...       0.02 
freq.    1001.87  E(vib)   ...       0.02 
freq.    1008.08  E(vib)   ...       0.02 
freq.    1013.73  E(vib)   ...       0.02 
freq.    1017.50  E(vib)   ...       0.02 
freq.    1023.08  E(vib)   ...       0.02 
freq.    1041.85  E(vib)   ...       0.02 
freq.    1043.41  E(vib)   ...       0.02 
freq.    1052.87  E(vib)   ...       0.02 
freq.    1054.66  E(vib)   ...       0.02 
freq.    1055.46  E(vib)   ...       0.02 
freq.    1075.68  E(vib)   ...       0.02 
freq.    1083.68  E(vib)   ...       0.02 
freq.    1111.01  E(vib)   ...       0.01 
freq.    1117.25  E(vib)   ...       0.01 
freq.    1128.17  E(vib)   ...       0.01 
freq.    1142.05  E(vib)   ...       0.01 
freq.    1158.36  E(vib)   ...       0.01 
freq.    1161.78  E(vib)   ...       0.01 
freq.    1172.73  E(vib)   ...       0.01 
freq.    1174.50  E(vib)   ...       0.01 
freq.    1194.56  E(vib)   ...       0.01 
freq.    1196.81  E(vib)   ...       0.01 
freq.    1216.33  E(vib)   ...       0.01 
freq.    1218.27  E(vib)   ...       0.01 
freq.    1243.59  E(vib)   ...       0.01 
freq.    1247.46  E(vib)   ...       0.01 
freq.    1278.03  E(vib)   ...       0.01 
freq.    1282.10  E(vib)   ...       0.01 
freq.    1286.88  E(vib)   ...       0.01 
freq.    1293.34  E(vib)   ...       0.01 
freq.    1294.82  E(vib)   ...       0.01 
freq.    1304.21  E(vib)   ...       0.01 
freq.    1306.53  E(vib)   ...       0.01 
freq.    1311.28  E(vib)   ...       0.01 
freq.    1319.47  E(vib)   ...       0.01 
freq.    1342.11  E(vib)   ...       0.01 
freq.    1343.41  E(vib)   ...       0.01 
freq.    1344.99  E(vib)   ...       0.01 
freq.    1357.96  E(vib)   ...       0.01 
freq.    1358.20  E(vib)   ...       0.01 
freq.    1372.01  E(vib)   ...       0.01 
freq.    1384.02  E(vib)   ...       0.00 
freq.    1388.57  E(vib)   ...       0.00 
freq.    1393.14  E(vib)   ...       0.00 
freq.    1393.61  E(vib)   ...       0.00 
freq.    1397.63  E(vib)   ...       0.00 
freq.    1403.08  E(vib)   ...       0.00 
freq.    1424.45  E(vib)   ...       0.00 
freq.    1425.03  E(vib)   ...       0.00 
freq.    1426.28  E(vib)   ...       0.00 
freq.    1427.54  E(vib)   ...       0.00 
freq.    1432.89  E(vib)   ...       0.00 
freq.    1434.91  E(vib)   ...       0.00 
freq.    1435.68  E(vib)   ...       0.00 
freq.    1443.12  E(vib)   ...       0.00 
freq.    1447.61  E(vib)   ...       0.00 
freq.    1451.01  E(vib)   ...       0.00 
freq.    1476.03  E(vib)   ...       0.00 
freq.    1484.23  E(vib)   ...       0.00 
freq.    1500.30  E(vib)   ...       0.00 
freq.    1558.79  E(vib)   ...       0.00 
freq.    1608.92  E(vib)   ...       0.00 
freq.    1820.43  E(vib)   ...       0.00 
freq.    1838.14  E(vib)   ...       0.00 
freq.    1860.18  E(vib)   ...       0.00 
freq.    1864.70  E(vib)   ...       0.00 
freq.    3066.81  E(vib)   ...       0.00 
freq.    3082.18  E(vib)   ...       0.00 
freq.    3086.81  E(vib)   ...       0.00 
freq.    3086.85  E(vib)   ...       0.00 
freq.    3089.35  E(vib)   ...       0.00 
freq.    3091.11  E(vib)   ...       0.00 
freq.    3113.34  E(vib)   ...       0.00 
freq.    3125.56  E(vib)   ...       0.00 
freq.    3133.39  E(vib)   ...       0.00 
freq.    3134.26  E(vib)   ...       0.00 
freq.    3158.00  E(vib)   ...       0.00 
freq.    3159.71  E(vib)   ...       0.00 
freq.    3163.97  E(vib)   ...       0.00 
freq.    3177.58  E(vib)   ...       0.00 
freq.    3178.61  E(vib)   ...       0.00 
freq.    3187.25  E(vib)   ...       0.00 
freq.    3187.89  E(vib)   ...       0.00 
freq.    3187.97  E(vib)   ...       0.00 
freq.    3188.22  E(vib)   ...       0.00 
freq.    3226.39  E(vib)   ...       0.00 
freq.    3226.82  E(vib)   ...       0.00 
freq.    3231.79  E(vib)   ...       0.00 
freq.    3544.52  E(vib)   ...       0.00 
freq.    3605.71  E(vib)   ...       0.00 
freq.    3725.03  E(vib)   ...       0.00 

------------
INNER ENERGY
------------

The inner energy is: U= E(el) + E(ZPE) + E(vib) + E(rot) + E(trans)
    E(el)   - is the total energy from the electronic structure calculation
              = E(kin-el) + E(nuc-el) + E(el-el) + E(nuc-nuc)
    E(ZPE)  - the the zero temperature vibrational energy from the frequency calculation
    E(vib)  - the the finite temperature correction to E(ZPE) due to population
              of excited vibrational states
    E(rot)  - is the rotational thermal energy
    E(trans)- is the translational thermal energy

Summary of contributions to the inner energy U:
Electronic energy                ...  -2336.91359317 Eh
Zero point energy                ...      0.45309066 Eh     284.32 kcal/mol
Thermal vibrational correction   ...      0.02916989 Eh      18.30 kcal/mol
Thermal rotational correction    ...      0.00141627 Eh       0.89 kcal/mol
Thermal translational correction ...      0.00141627 Eh       0.89 kcal/mol
-----------------------------------------------------------------------
Total thermal energy                  -2336.42850007 Eh


Summary of corrections to the electronic energy:
(perhaps to be used in another calculation)
Total thermal correction                  0.03200243 Eh      20.08 kcal/mol
Non-thermal (ZPE) correction              0.45309066 Eh     284.32 kcal/mol
-----------------------------------------------------------------------
Total correction                          0.48509309 Eh     304.40 kcal/mol


--------
ENTHALPY
--------

The enthalpy is H = U + kB*T
                kB is Boltzmann's constant
Total thermal energy              ...  -2336.42850007 Eh 
Thermal Enthalpy correction       ...      0.00094421 Eh       0.59 kcal/mol
-----------------------------------------------------------------------
Total Enthalpy                    ...  -2336.42755587 Eh


Note: Only C1 symmetry has been detected, increase convergence thresholds 
      if your molecule has a higher symmetry. Symmetry factor of 1.0 is   
      used for the rotational entropy correction. 
 

Note: Rotational entropy computed according to Herzberg 
Infrared and Raman Spectra, Chapter V,1, Van Nostrand Reinhold, 1945 
Point Group:  C1, Symmetry Number:   1  
Rotational constants in cm-1:     0.006509     0.002387     0.001927 

Vibrational entropy computed according to the QRRHO of S. Grimme
Chem.Eur.J. 2012 18 9955 using a reference frequency of 100.0 cm-1


-------
ENTROPY
-------

The entropy contributions are T*S = T*(S(el)+S(vib)+S(rot)+S(trans))
     S(el)   - electronic entropy
     S(vib)  - vibrational entropy
     S(rot)  - rotational entropy
     S(trans)- translational entropy
The entropies will be listed as multiplied by the temperature to get
units of energy

Electronic entropy                ...      0.00000000 Eh      0.00 kcal/mol
Vibrational entropy               ...      0.05366127 Eh     33.67 kcal/mol
Rotational entropy                ...      0.01768934 Eh     11.10 kcal/mol
Translational entropy             ...      0.02112645 Eh     13.26 kcal/mol
-----------------------------------------------------------------------
Final entropy term                ...      0.09247705 Eh     58.03 kcal/mol

In case the symmetry of your molecule has not been determined correctly
or in case you have a reason to use a different symmetry number we print 
out the resulting rotational entropy values for sn=1,12:

 non-linear molecules -----------------------------------
|  sn= 1 | S(rot)=       0.01768934 Eh     11.10 kcal/mol|
|  sn= 2 | S(rot)=       0.01703488 Eh     10.69 kcal/mol|
|  sn= 3 | S(rot)=       0.01665205 Eh     10.45 kcal/mol|
|  sn= 4 | S(rot)=       0.01638043 Eh     10.28 kcal/mol|
|  sn= 5 | S(rot)=       0.01616974 Eh     10.15 kcal/mol|
|  sn= 6 | S(rot)=       0.01599759 Eh     10.04 kcal/mol|
|  sn= 7 | S(rot)=       0.01585205 Eh      9.95 kcal/mol|
|  sn= 8 | S(rot)=       0.01572597 Eh      9.87 kcal/mol|
|  sn= 9 | S(rot)=       0.01561476 Eh      9.80 kcal/mol|
|  sn=10 | S(rot)=       0.01551528 Eh      9.74 kcal/mol|
|  sn=11 | S(rot)=       0.01542529 Eh      9.68 kcal/mol|
|  sn=12 | S(rot)=       0.01534314 Eh      9.63 kcal/mol|
 linear molecules ---------------------------------------
|  Dinfh | S(rot)=       0.01122876 Eh      7.05 kcal/mol|
|  Cinfv | S(rot)=       0.01188321 Eh      7.46 kcal/mol|
 --------------------------------------------------------


-------------------
GIBBS FREE ENERGY
-------------------

The Gibbs free energy is G = H - T*S

Total enthalpy                    ...  -2336.42755587 Eh 
Total entropy correction          ...     -0.09247705 Eh    -58.03 kcal/mol
-----------------------------------------------------------------------
Final Gibbs free energy         ...  -2336.52003292 Eh

For completeness - the Gibbs free energy minus the electronic energy
G-E(el)                           ...      0.39356025 Eh    246.96 kcal/mol


Maximum memory used throughout the entire PROP-calculation: 470.1 MB

--------------------------------
SUGGESTED CITATIONS FOR THIS RUN
--------------------------------

Below you find a list of papers that are relevant to this ORCA run
We neither can nor want to force you to cite these papers, but we appreciate if you do
You receive ORCA, which is the product of decades of hard work by many enthusiastic individuals, for free
The only thing we kindly ask in return is that you cite our papers,
We deeply appreciate it, if you show your appreciation for ORCA by not just citing the generic ORCA reference.

Please note that relegating all ORCA citations to the supporting information does *not* help us.
SI sections are not indexed - citations you put there will not count into any citation statistics
But we need these citations in order to attract the funding resources that allow us to do what we are doing

Therefore, if you are a happy ORCA user, please consider citing a few of the papers listed below in the main body of your paper

In addition to the list printed below, the program has created the file compound_09_wb97xd3_def2svp_cpcm_water_freq.bibtex that contains the list in bibtex format
You can import this file easily into all common literature databanks and citation aid programs

It goes without saying that in many instances, there are alternative algorithms to achieve similar
results as the ones you have gotten from ORCA. It is, of course, also the case that in some instances
ORCA just re-implements algorithms worked out by others. We are fully aware of that and we are also
fully appreciative of our colleagues work. Hence this citation list should not be read as indicating
that the listed papers, which are focused on our own work, are the only ones worth citing. It simply
meant to make it easier for users to cite ORCA specific papers. It is not a substitute for doing your
own literature research and citing the relevant literature in a scientifically appropriate manner.

List of essential papers. We consider these as the minimum necessary citations

  1. Neese, F.
     Software update: the ORCA program system, version 6.0
     WIRES Comput. Molec. Sci. 2025 15(1), e70019
     doi.org/10.1002/wcms.70019

List of papers to cite with high priority. The work reported in these papers was absolutely
necessary for this run to complete.
Our perspective: the developers of density functionals and basis sets usually get cited in chemistry papers
Good! But without the algorithms to do something with them, the functionals or basis sets would not do anything.
Hence, in our opinion, the algorithm design and method developments papers are equally worthy of getting cited

  1. Neese, F.
     An improvement of the resolution of the identity approximation for the formation of the Coulomb matrix
     J. Comp. Chem. 2003 24(14), 1740-1747
     doi.org/10.1002/jcc.10318
  2. Neese, F.; Wennmohs, F.; Hansen, A.; Becker, U.
     Efficient, approximate and parallel Hartree-Fock and hybrid DFT calculations. A 'chain-of-spheres' algorithm for the Hartree-Fock exchange
     Chem. Phys. 2009 356(1-3), 98-109
     doi.org/10.1016/j.chemphys.2008.10.036
  3. Grimme, S.; Antony, J.; Ehrlich, S.; Krieg, H.
     A consistent and accurate ab initio parametrization of density functional dispersion correction (DFT-D) for the 94 elements H-Pu
     J. Chem. Phys. 2010 132 , 154104
     doi.org/10.1063/1.3382344
  4. Bykov, D.; Petrenko, T.; Izsak, R.; Kossmann, S.; Becker, U.; Valeev, E.; Neese, F.
     Efficient implementation of the analytic second derivatives of Hartree-Fock and hybrid DFT energies: a detailed analysis of different approximations
     Molec. Phys. 2015 113 , 1961-1977
     doi.org/10.1080/00268976.2015.1025114
  5. Garcia-Rates, M.; Neese, F.
     Efficient implementation of the analytical second derivatives of hartree-fock and hybrid DFT energies within the framework of the conductor-like polarizable continuum model
     J. Comput. Chem. 2019 40 , 1816-1828
     doi.org/10.1002/jcc.25833
  6. Garcia-Rates, M.; Neese, F.
     Effect of the Solute Cavity on the Solvation Energy and its Derivatives within the Framework of the Gaussian Charge Scheme
     J. Comput. Chem. 2020 41 , 922-939
     doi.org/10.1002/jcc.26139
  7. Helmich-Paris, B.; de Souza, B.; Neese, F.; Izsák, R.
     An improved chain of spheres for exchange algorithm
     J. Chem. Phys. 2021 155(10), 104109
     doi.org/10.1063/5.0058766
  8. Neese, F.
     The SHARK Integral Generation and Digestion System
     J. Comp. Chem. 2022 44(3), 381
     doi.org/10.1002/jcc.26942

List of suggested additional citations. These are papers that are important in the 'surrounding' of 
of this run, or papers that preceded the highly important papers. If you like your results we are grateful for a citation.

  1. Izsak, R.; Neese, F.
     An overlap fitted chain of spheres exchange method
     J. Chem. Phys. 2011 135 , 144105
     doi.org/10.1063/1.3646921
  2. Izsak, R.; Hansen, A.; Neese, F.
     The resolution of identity and chain of spheres approximations for the LPNO-CCSD singles Fock term
     Molec. Phys. 2012 110 , 2413-2417
     doi.org/10.1080/00268976.2012.687466
  3. Neese, F.
     The ORCA program system
     WIRES Comput. Molec. Sci. 2012 2(1), 73-78
     doi.org/10.1002/wcms.81
  4. Izsak, R.; Neese, F.; Klopper, W.
     Robust fitting techniques in the chain of spheres approximation to the Fock exchange: The role of the complementary space
     J. Chem. Phys. 2013 139 , 
     doi.org/10.1063/1.4819264
  5. Neese, F.
     Software update: the ORCA program system, version 4.0
     WIRES Comput. Molec. Sci. 2018 8(1), 1-6
     doi.org/10.1002/wcms.1327
  6. Neese, F.; Wennmohs, F.; Becker, U.; Riplinger, C.
     The ORCA quantum chemistry program package
     J. Chem. Phys. 2020 152(22), 224108
     doi.org/10.1063/5.0004608
  7. Neese, F.
     Software update: The ORCA program system—Version 5.0
     WIRES Comput. Molec. Sci. 2022 12(1), e1606
     doi.org/10.1002/wcms.1606

List of optional additional citations

  1. Neese, F.
     Approximate second-order SCF convergence for spin unrestricted wavefunctions
     Chem. Phys. Lett. 2000 325(1-3), 93-98
     doi.org/10.1016/s0009-2614(00)00662-x

Timings for individual modules:

Sum of individual times          ...     1676.639 sec (=  27.944 min)
Startup calculation              ...        3.769 sec (=   0.063 min)   0.2 %
SCF iterations                   ...      110.769 sec (=   1.846 min)   6.6 %
Property integrals               ...      396.891 sec (=   6.615 min)  23.7 %
SCF Response                     ...      647.331 sec (=  10.789 min)  38.6 %
Property calculations            ...      517.879 sec (=   8.631 min)  30.9 %
                             ****ORCA TERMINATED NORMALLY****
TOTAL RUN TIME: 0 days 0 hours 27 minutes 57 seconds 405 msec
