
                                 *****************
                                 * O   R   C   A *
                                 *****************

                                            #,                                       
                                            ###                                      
                                            ####                                     
                                            #####                                    
                                            ######                                   
                                           ########,                                 
                                     ,,################,,,,,                         
                               ,,#################################,,                 
                          ,,##########################################,,             
                       ,#########################################, ''#####,          
                    ,#############################################,,   '####,        
                  ,##################################################,,,,####,       
                ,###########''''           ''''###############################       
              ,#####''   ,,,,##########,,,,          '''####'''          '####       
            ,##' ,,,,###########################,,,                        '##       
           ' ,,###''''                  '''############,,,                           
         ,,##''                                '''############,,,,        ,,,,,,###''
      ,#''                                            '''#######################'''  
     '                                                          ''''####''''         
             ,#######,   #######,   ,#######,      ##                                
            ,#'     '#,  ##    ##  ,#'     '#,    #''#        ,####,    ,#,          
            ##       ##  ##   ,#'  ##            #'  '#       #'       ,# #          
            ##       ##  #######   ##           ,######,      #####,      #          
            '#,     ,#'  ##    ##  '#,     ,#' ,#      #,     #,   #      #          
             '#######'   ##     ##  '#######'  #'      '#     '####' #    #          



                #########################################################
                #                        -***-                          #
                #          Department of theory and spectroscopy        #
                #                                                       #
                #                      Frank Neese                      #
                #                                                       #
                #     Directorship, Architecture, Infrastructure        #
                #                    SHARK, DRIVERS                     #
                #        Core code/Algorithms in most modules           #
                #                                                       #
                #        Max Planck Institute fuer Kohlenforschung      #
                #                Kaiser Wilhelm Platz 1                 #
                #                 D-45470 Muelheim/Ruhr                 #
                #                      Germany                          #
                #                                                       #
                #                  All rights reserved                  #
                #                        -***-                          #
                #########################################################


                         Program Version 6.1.1  -  RELEASE   -
                                (GIT: $487d211c$)
                          ($2025-11-21 10:33:24 +0100$)


 With contributions from (in alphabetic order):
[Max-Planck-Institut fuer Kohlenforschung]                               
  Daniel Aravena         : Magnetic Suceptibility                        
  Michael Atanasov       : Ab Initio Ligand Field Theory (pilot matlab implementation)
  Alexander A. Auer      : GIAO ZORA, VPT2 properties, NMR spectrum      
  Ute Becker             : All parallelization in ORCA, NUMFREQ, NUMCALC 
  Giovanni Bistoni       : ED, misc. LED, open-shell LED, HFLD           
  Dmytro Bykov           : pre 5.0 version of the SCF Hessian            
  Marcos Casanova-Páez   : Triplet and SCS-CIS(D). UHF-(DLPNO)-IP/EA/STEOM-CCSD. UHF-CVS-IP/STEOM-CCSD   
  Vijay G. Chilkuri      : MRCI spin determinant printing, contributions to CSF-ICE 
  Pauline Colinet        : FMM embedding                                 
  Dipayan Datta          : RHF DLPNO-CCSD density                        
  Achintya Kumar Dutta   : EOM-CC, STEOM-CC                              
  Nicolas Foglia         : Exact transition moments, OPA infrastructure, MCD improvements    
  Dmitry Ganyushin       : Spin-Orbit,Spin-Spin,Magnetic field MRCI      
  Miquel Garcia-Rates    : C-PCM and meta-GGA Hessian, CCSD/C-PCM, Gaussian charge scheme 
  Tiago L. C. Gouveia    : GS-ROHF, GS-ROCIS                             
  Yang Guo               : DLPNO-NEVPT2, F12-NEVPT2, CIM, IAO-localization        
  Andreas Hansen         : Spin unrestricted coupled pair/coupled cluster methods 
  Ingolf Harden          : AUTO-CI MPn and infrastructure                
  Benjamin Helmich-Paris : MC-RPA, TRAH-(SCF,CASSCF), AVAS, COSX integrals, SCF dyn. polar., MC-PDFT, srDFT 
  Lee Huntington         : MR-EOM, pCC                                   
  Robert Izsak           : Overlap fitted RIJCOSX, COSX-SCS-MP3, EOM     
  Riya Kayal             : Wick's Theorem for AUTO-CI, AUTO-CI UHF-CCSDT 
  Emily Kempfer          : AUTO-CI RHF CISDT and CCSDT, approximate NEVPT4
  Christian Kollmar      : KDIIS, OOCD, Brueckner-CCSD(T), CCSD density, CASPT2, CASPT2-K, improved NEVPT2 
  Axel Koslowski         : Symmetry handling                             
  Simone Kossmann        : meta-GGA functionals, TD-DFT gradient, OOMP2, (MP2 Hessian; deprecated post 5.0) 
  Lucas Lang             : DCDCAS, Hyperfine gauge corrections, ICE-SOC+SSC
  Marvin Lechner         : AUTO-CI (C++ implementation), FIC-MRCC        
  Spencer Leger          : CASSCF response                               
  Dagmar Lenk            : GEPOL surface, SMD, ORCA-2-JSON               
  Dimitrios Liakos       : Extrapolation schemes; Compound Job, Property file
  Dimitrios Manganas     : Further ROCIS development; embedding schemes. LFT, Crystal Embedding 
  Dimitrios Pantazis     : SARC Basis sets                               
  Anastasios Papadopoulos: AUTO-CI, single reference methods and gradients 
  Taras Petrenko         : pre 6.0 DFT Hessian and TD-DFT gradient,  ECA, NRVS 
  Petra Pikulova         : Analytic Raman intensities                    
  Peter Pinski           : DLPNO-MP2, DLPNO-MP2 Gradient                 
  Shashank Vittal Rao    : ES-AILFT, MagRelax                            
  Christoph Reimann      : Effective Core Potentials                     
  Marius Retegan         : Local ZFS, SOC                                
  Christoph Riplinger    : Optimizer, TS searches, QM/MM, DLPNO-CCSD(T), (RO)-DLPNO pert. Triples 
  Michael Roemelt        : Original ROCIS implementation, recursive CI coupling coefficients
  Masaaki Saitow         : Open-shell DLPNO-CCSD energy and density      
  Barbara Sandhoefer     : DKH picture change effects                    
  Yorick L. A. Schmerwitz: GMF and freeze-and-release deltaSCF, NEB S-IDPP initial path                    
  Kantharuban Sivalingam : CASSCF convergence/infrastructure, NEVPT2, NEVPT3, NEVPT4(SD), FIC-MRCI and CEPA variants
  Bernardo de Souza      : ESD, SOC TD-DFT                               
  Georgi L. Stoychev     : AutoAux, RI-MP2 NMR, DLPNO-MP2 response, X2C  
  Van Anh Tran           : RI-MP2 g-tensors                              
  Willem Van den Heuvel  : Paramagnetic NMR                              
  Zikuan Wang            : NOTCH, Electric field optimization            
  Frank Wennmohs         : Technical directorship and infrastructure     
  Hang Xu                : AUTO-CI-Response properties                   
                                                                         
[FACCTs GmbH]                                                            
  Markus Bursch, Nicolas Foglia, Miquel Garcia-Rates, Ingolf Harden, Hagen Neugebauer, Anastasios Papadopoulos, 
  Christoph Riplinger, Bernardo de Souza, Georgi L. Stoychev                                                    
                                                                 
  APM, various basis sets, CI-OPT, improved COSX, DLPNO-Multilevel,           
  DOCKER, DRACO, updates on ESD, Fragmentator, GOAT, IRC, LR-CPCM, L-BFGS, MBIS, meta-GGA TD-DFT gradient, ML-optimized integration grids, 
  MM, NACMEs, nearIR, NEB, NEB-TS, NL-DFT gradient (VV10), 2- and 3-layer-ONIOM, interface openCOSMO-RS, QMMM,   
  Crystal-QMMM, RESP, rigid body optimization, SF, symmetry and pop. for TD-DFT, various functionals, SOLVATOR                                   
                                                                         
[Other institutions]                                                     
  V. Asgeirsson          : NEB                                           
  Christoph Bannwarth    : sTDA-DFT, sTD-DFT, PBEh-3c, B97-3c, D3        
  Giovanni Bistoni       : ETS/NOCV, ADLD/ADEX, COVALED                  
  Martin Brehm           : Molecular dynamics                            
  Ronald Cardenas        : ETS/NOCV                                      
  Martina Colucci        : COVALED                                       
  Sebastian Ehlert       : rSCAN, r2SCAN, r2SCAN-3c, D4, dhf basis sets  
  Marvin Friede          : D4 for Fr, Ra, Ac-Lr                          
  Lars Goerigk           : TD-DFT with DH, B97 family of functionals     
  Stefan Grimme          : VdW corrections, initial TS optimization, DFT functionals, gCP, sTDA/sTD-DF 
  Waldemar Hujo          : DFT-NL                                        
  H. Jonsson             : NEB                                           
  Holger Kruse           : gCP                                           
  Marcel Mueller         : wB97X-3c, vDZP basis set                      
  Hagen Neugebauer       : wr2SCAN, Native XTB                           
  Gianluca Regni         : ADLD/ADEX                                     
  Tobias Risthaus        : pre 6.0 range-separated hybrid DFT and stability analysis
  Lukas Wittmann         : regularized MP2, r2SCAN double-hybrids, wr2SCAN        
                                                                         
We gratefully acknowledge several colleagues who have allowed us to      
interface, adapt or use parts of their codes:                            
  Ed Valeev, F. Pavosevic, A. Kumar             : LibInt (2-el integral package), F12 methods 
  Garnet Chan, S. Sharma, J. Yang, R. Olivares  : DMRG                   
  Ulf Ekstrom                                   : XCFun DFT Library      
  Mihaly Kallay                                 : mrcc  (arbitrary order and MRCC methods)
  Frank Weinhold                                : gennbo (NPA and NBO analysis)           
  Simon Mueller                                 : openCOSMO-RS                            
  Christopher J. Cramer and Donald G. Truhlar   : smd solvation model                     
  S Lehtola, MJT Oliveira, MAL Marques          : LibXC Library                           
  Liviu Ungur et al                             : ANISO software                          


 Your calculation uses the libint2 library for the computation of 2-el integrals
 For citations please refer to: http://libint.valeyev.net

 Your ORCA version has been built with support for libXC version: 7.0.0
 For citations please refer to: https://libxc.gitlab.io

 This ORCA versions uses:
   CBLAS   interface :  Fast vector & matrix operations
   LAPACKE interface :  Fast linear algebra routines
   SCALAPACK package :  Parallel linear algebra routines
   Shared memory     :  Shared parallel matrices
   BLAS/LAPACK       :  OpenBLAS 0.3.29  USE64BITINT DYNAMIC_ARCH NO_AFFINITY SkylakeX SINGLE_THREADED
        Core in use  :  SkylakeX
   Copyright (c) 2011-2014, The OpenBLAS Project


  ***********************************
  * Starting time: Sat Jul 11 22:09:42 2026
  * Host name:     tomasz-Precision-5820-Tower
  * Process ID:    626258
  * Working dir.:  /data/BIOFILM_INSILICO_SUPPORT/01_qm_orca_xtb/compound_09/outputs
  ***********************************

NOTE: MaxCore=3000 MB was set to SCF,MP2,MDCI,CIPSI,MRCI,RASCI and CIS
      => If you want to overwrite this, your respective input block should be placed after the MaxCore statement


***************************************
The coordinates will be read from file: ../inputs/compound_09_wb97xd3_def2svp_cpcm_water_start.xyz
***************************************


Your calculation utilizes the atom-pairwise dispersion correction
with the zero-damping scheme (D30)


XCFun DFT library Copyright 2009-2010 Ulf Ekstrom and contributors.
See http://admol.org/xcfun for more information.
This is free software; see the source code for copying conditions.
There is ABSOLUTELY NO WARRANTY; not even for MERCHANTABILITY or FITNESS FOR A PARTICULAR PURPOSE.
For details see the documentation.
Scientific users of this library should cite U. Ekstrom, L. Visscher, R. Bast, A. J. Thorvaldsen and K. Ruud;
J.Chem.Theor.Comp. 2010, DOI: 10.1021/ct100117s
XCFun Version 0.99 

Warning: RI is on but no J-basis has been assigned. Assigning Def2/J (nothing to worry about!)
================================================================================

----- Orbital basis set information -----
Your calculation utilizes the basis: def2-SVP
   F. Weigend and R. Ahlrichs, Phys. Chem. Chem. Phys. 7, 3297 (2005).

----- AuxJ basis set information -----
Your calculation utilizes the auxiliary basis: def2/J
   H-Rn: F. Weigend, Phys. Chem. Chem. Phys. 8, 1057 (2006).
   Fr-Lr: K. Eichkorn, F. Weigend, O. Treutler, R. Ahlrichs; Theor. Chem. Acc. 97, 119 (1997).

================================================================================
                                        WARNINGS
                       Please study these warnings very carefully!
================================================================================


WARNING: Geometry Optimization
  ===> : Switching off AutoStart
         For restart on a previous wavefunction, please use MOREAD

================================================================================
                                       INPUT FILE
================================================================================
NAME = ../inputs/compound_09_wb97xd3_def2svp_cpcm_water_opt.inp
|  1> ! wB97X-D3 def2-SVP CPCM(Water) TightSCF TightOpt
|  2> %pal
|  3>   nprocs 8
|  4> end
|  5> %maxcore 3000
|  6> %geom
|  7>   Calc_Hess true
|  8>   Recalc_Hess 10
|  9>   MaxIter 300
| 10> end
| 11> * xyzfile 0 1 ../inputs/compound_09_wb97xd3_def2svp_cpcm_water_start.xyz
| 12> 
| 13>                          ****END OF INPUT****
================================================================================

                       *****************************
                       * Geometry Optimization Run *
                       *****************************

Geometry optimization settings:
Update method            Update   .... BFGS
Choice of coordinates    CoordSys .... (2022) Redundant Internals
Initial Hessian          InHess   .... Almloef's Model
Max. no of cycles        MaxIter  .... 300

Convergence Tolerances:
Energy Change            TolE     ....  1.0000e-06 Eh
Max. Gradient            TolMAXG  ....  1.0000e-04 Eh/bohr
RMS Gradient             TolRMSG  ....  3.0000e-05 Eh/bohr
Max. Displacement        TolMAXD  ....  1.0000e-03 bohr
RMS Displacement         TolRMSD  ....  6.0000e-04 bohr
Strict Convergence                .... False

------------------------------------------------------------------------------
                        ORCA OPTIMIZATION COORDINATE SETUP
------------------------------------------------------------------------------

The optimization will be done in redundant internal coordinates (2022)
Making redundant internal coordinates   ...  (2022 redundants) done
Evaluating the initial hessian          ...  (Is done on the fly) done
Evaluating the coordinates              ...  done
Calculating the B-matrix                .... done
Calculating the G-matrix                .... done
The number of degrees of freedom        ....  286

    -----------------------------------------------------------------
                    Redundant Internal Coordinates


    -----------------------------------------------------------------
         Definition                    Initial Value    d2E/dq (diagonal element)
    -----------------------------------------------------------------
      1. B(C   1,S   0)                  1.6576         0.000000   
      2. B(N   2,C   1)                  1.3534         0.000000   
      3. B(N   3,C   1)                  1.3685         0.000000   
      4. B(N   4,N   3)                  1.3620         0.000000   
      5. B(C   5,N   4)                  1.3009         0.000000   
      6. B(C   6,C   5)                  1.5201         0.000000   
      7. B(C   7,C   6)                  1.5402         0.000000   
      8. B(S   8,C   7)                  1.8469         0.000000   
      9. B(C   9,S   8)                  1.8384         0.000000   
     10. B(C  10,C   9)                  1.5471         0.000000   
     11. B(O  11,C  10)                  1.4499         0.000000   
     12. B(C  12,O  11)                  1.3589         0.000000   
     13. B(C  13,C  12)                  1.4971         0.000000   
     14. B(O  14,C  12)                  1.2225         0.000000   
     15. B(C  15,C  10)                  1.5347         0.000000   
     16. B(O  16,C  15)                  1.4551         0.000000   
     17. B(C  17,O  16)                  1.3602         0.000000   
     18. B(C  18,C  17)                  1.4981         0.000000   
     19. B(O  19,C  17)                  1.2218         0.000000   
     20. B(C  20,C  15)                  1.5352         0.000000   
     21. B(O  21,C  20)                  1.4420         0.000000   
     22. B(C  22,O  21)                  1.3583         0.000000   
     23. B(C  23,C  22)                  1.4975         0.000000   
     24. B(O  24,C  22)                  1.2220         0.000000   
     25. B(C  25,C  20)                  1.5282         0.000000   
     26. B(O  26,C  25)                  1.4268         0.000000   
     27. B(O  26,C   9)                  1.4311         0.000000   
     28. B(C  27,C   7)                  1.5567         0.000000   
     29. B(O  28,C  27)                  1.4402         0.000000   
     30. B(C  29,O  28)                  1.4300         0.000000   
     31. B(C  29,C   5)                  1.5315         0.000000   
     32. B(O  30,C  29)                  1.4344         0.000000   
     33. B(C  31,O  30)                  1.4373         0.000000   
     34. B(C  31,C  27)                  1.5183         0.000000   
     35. B(H  32,N   4)                  2.2119         0.000000   
     36. B(H  32,N   2)                  1.0130         0.000000   
     37. B(H  33,N   2)                  1.0092         0.000000   
     38. B(H  34,N   3)                  1.0137         0.000000   
     39. B(H  35,C   6)                  1.0931         0.000000   
     40. B(H  36,C   6)                  1.0971         0.000000   
     41. B(H  37,C   7)                  1.0956         0.000000   
     42. B(H  38,C   9)                  1.0909         0.000000   
     43. B(H  39,C  10)                  1.0997         0.000000   
     44. B(H  40,H  32)                  2.8299         0.000000   
     45. B(H  40,C  13)                  1.0936         0.000000   
     46. B(H  41,C  13)                  1.0928         0.000000   
     47. B(H  42,C  13)                  1.0929         0.000000   
     48. B(H  43,C  15)                  1.0972         0.000000   
     49. B(H  44,C  18)                  1.0929         0.000000   
     50. B(H  45,C  18)                  1.0938         0.000000   
     51. B(H  46,C  18)                  1.0929         0.000000   
     52. B(H  47,C  20)                  1.0986         0.000000   
     53. B(H  48,C  23)                  1.0928         0.000000   
     54. B(H  49,C  23)                  1.0937         0.000000   
     55. B(H  50,C  23)                  1.0930         0.000000   
     56. B(H  51,C  25)                  1.0965         0.000000   
     57. B(H  52,C  25)                  1.0953         0.000000   
     58. B(H  53,C  27)                  1.0952         0.000000   
     59. B(H  54,C  29)                  1.0897         0.000000   
     60. B(H  55,C  31)                  1.0933         0.000000   
     61. B(H  56,C  31)                  1.0953         0.000000   
     62. A(N   2,C   1,N   3)          115.6297         0.000000   
     63. A(S   0,C   1,N   2)          122.1069         0.000000   
     64. A(S   0,C   1,N   3)          122.2633         0.000000   
     65. A(H  32,N   2,H  33)          120.9468         0.000000   
     66. A(C   1,N   2,H  33)          121.7599         0.000000   
     67. A(C   1,N   2,H  32)          117.2615         0.000000   
     68. A(C   1,N   3,N   4)          120.6553         0.000000   
     69. A(N   4,N   3,H  34)          122.2411         0.000000   
     70. A(C   1,N   3,H  34)          116.9863         0.000000   
     71. A(N   3,N   4,C   5)          119.3676         0.000000   
     72. A(N   4,C   5,C  29)          128.9314         0.000000   
     73. A(N   4,C   5,C   6)          117.4899         0.000000   
     74. A(C   6,C   5,C  29)          113.5777         0.000000   
     75. A(C   5,C   6,H  35)          110.2535         0.000000   
     76. A(C   5,C   6,C   7)          109.7397         0.000000   
     77. A(C   7,C   6,H  36)          109.4545         0.000000   
     78. A(C   5,C   6,H  36)          106.9658         0.000000   
     79. A(H  35,C   6,H  36)          106.4386         0.000000   
     80. A(C   7,C   6,H  35)          113.7230         0.000000   
     81. A(C   6,C   7,S   8)          110.5079         0.000000   
     82. A(C   6,C   7,H  37)          109.7668         0.000000   
     83. A(C  27,C   7,H  37)          108.9567         0.000000   
     84. A(S   8,C   7,C  27)          107.9332         0.000000   
     85. A(C   6,C   7,C  27)          112.0887         0.000000   
     86. A(S   8,C   7,H  37)          107.4541         0.000000   
     87. A(C   7,S   8,C   9)          100.0337         0.000000   
     88. A(S   8,C   9,H  38)          106.6243         0.000000   
     89. A(C  10,C   9,O  26)          111.9931         0.000000   
     90. A(S   8,C   9,C  10)          113.1870         0.000000   
     91. A(C  10,C   9,H  38)          107.5711         0.000000   
     92. A(S   8,C   9,O  26)          111.5351         0.000000   
     93. A(O  26,C   9,H  38)          105.3866         0.000000   
     94. A(C  15,C  10,H  39)          107.1420         0.000000   
     95. A(C   9,C  10,O  11)          112.7907         0.000000   
     96. A(O  11,C  10,C  15)          108.2458         0.000000   
     97. A(O  11,C  10,H  39)          108.0092         0.000000   
     98. A(C   9,C  10,H  39)          109.1492         0.000000   
     99. A(C   9,C  10,C  15)          111.2977         0.000000   
    100. A(C  10,O  11,C  12)          116.2266         0.000000   
    101. A(C  13,C  12,O  14)          124.7699         0.000000   
    102. A(O  11,C  12,O  14)          124.8954         0.000000   
    103. A(O  11,C  12,C  13)          110.3271         0.000000   
    104. A(H  41,C  13,H  42)          110.6445         0.000000   
    105. A(C  12,C  13,H  42)          109.8973         0.000000   
    106. A(H  40,C  13,H  42)          108.3510         0.000000   
    107. A(H  40,C  13,H  41)          108.8610         0.000000   
    108. A(C  12,C  13,H  41)          109.7384         0.000000   
    109. A(C  12,C  13,H  40)          109.3154         0.000000   
    110. A(O  16,C  15,H  43)          109.1829         0.000000   
    111. A(O  16,C  15,C  20)          108.8378         0.000000   
    112. A(C  10,C  15,C  20)          110.5371         0.000000   
    113. A(C  20,C  15,H  43)          111.1996         0.000000   
    114. A(C  10,C  15,H  43)          109.8106         0.000000   
    115. A(C  10,C  15,O  16)          107.1717         0.000000   
    116. A(C  15,O  16,C  17)          116.8809         0.000000   
    117. A(O  16,C  17,O  19)          125.9385         0.000000   
    118. A(O  16,C  17,C  18)          109.7843         0.000000   
    119. A(C  18,C  17,O  19)          124.2768         0.000000   
    120. A(H  45,C  18,H  46)          108.5380         0.000000   
    121. A(C  17,C  18,H  46)          109.8314         0.000000   
    122. A(H  44,C  18,H  46)          110.6613         0.000000   
    123. A(H  44,C  18,H  45)          108.6198         0.000000   
    124. A(C  17,C  18,H  45)          109.3572         0.000000   
    125. A(C  17,C  18,H  44)          109.7999         0.000000   
    126. A(O  21,C  20,C  25)          109.9563         0.000000   
    127. A(C  15,C  20,C  25)          110.0949         0.000000   
    128. A(C  15,C  20,O  21)          108.6194         0.000000   
    129. A(C  25,C  20,H  47)          110.4828         0.000000   
    130. A(O  21,C  20,H  47)          109.7267         0.000000   
    131. A(C  15,C  20,H  47)          107.9145         0.000000   
    132. A(C  20,O  21,C  22)          116.2883         0.000000   
    133. A(C  23,C  22,O  24)          124.7092         0.000000   
    134. A(O  21,C  22,O  24)          125.1922         0.000000   
    135. A(O  21,C  22,C  23)          110.0980         0.000000   
    136. A(H  48,C  23,H  50)          110.6409         0.000000   
    137. A(C  22,C  23,H  50)          109.8106         0.000000   
    138. A(H  48,C  23,H  49)          108.6690         0.000000   
    139. A(C  22,C  23,H  49)          109.3476         0.000000   
    140. A(C  22,C  23,H  48)          109.8069         0.000000   
    141. A(H  49,C  23,H  50)          108.5331         0.000000   
    142. A(H  51,C  25,H  52)          105.2918         0.000000   
    143. A(C  20,C  25,H  52)          109.9710         0.000000   
    144. A(O  26,C  25,H  51)          110.3720         0.000000   
    145. A(C  20,C  25,H  51)          111.0989         0.000000   
    146. A(C  20,C  25,O  26)          112.6208         0.000000   
    147. A(O  26,C  25,H  52)          107.1530         0.000000   
    148. A(C   9,O  26,C  25)          114.4001         0.000000   
    149. A(O  28,C  27,H  53)          110.4638         0.000000   
    150. A(C   7,C  27,H  53)          111.5101         0.000000   
    151. A(O  28,C  27,C  31)           99.9596         0.000000   
    152. A(C   7,C  27,C  31)          113.0532         0.000000   
    153. A(C  31,C  27,H  53)          111.5826         0.000000   
    154. A(C   7,C  27,O  28)          109.7015         0.000000   
    155. A(C  27,O  28,C  29)          101.8856         0.000000   
    156. A(O  30,C  29,H  54)          110.4745         0.000000   
    157. A(O  28,C  29,H  54)          111.2656         0.000000   
    158. A(C   5,C  29,H  54)          114.2116         0.000000   
    159. A(O  28,C  29,O  30)          107.8772         0.000000   
    160. A(C   5,C  29,O  30)          107.7978         0.000000   
    161. A(C   5,C  29,O  28)          104.8745         0.000000   
    162. A(C  29,O  30,C  31)          105.0394         0.000000   
    163. A(H  55,C  31,H  56)          109.1369         0.000000   
    164. A(O  30,C  31,H  56)          107.0707         0.000000   
    165. A(C  27,C  31,H  56)          111.0608         0.000000   
    166. A(O  30,C  31,H  55)          110.5527         0.000000   
    167. A(C  27,C  31,H  55)          114.1234         0.000000   
    168. A(C  27,C  31,O  30)          104.6105         0.000000   
    169. D(H  32,N   2,C   1,N   3)     -1.1771         0.000000   
    170. D(H  32,N   2,C   1,S   0)    178.6943         0.000000   
    171. D(H  33,N   2,C   1,S   0)      0.7306         0.000000   
    172. D(H  33,N   2,C   1,N   3)   -179.1408         0.000000   
    173. D(N   4,N   3,C   1,S   0)    177.2640         0.000000   
    174. D(N   4,N   3,C   1,N   2)     -2.8648         0.000000   
    175. D(H  34,N   3,C   1,S   0)      1.1137         0.000000   
    176. D(H  34,N   3,C   1,N   2)   -179.0151         0.000000   
    177. D(C   5,N   4,N   3,C   1)    174.9910         0.000000   
    178. D(C   5,N   4,N   3,H  34)     -9.0652         0.000000   
    179. D(C  29,C   5,N   4,N   3)     -3.9024         0.000000   
    180. D(C   6,C   5,N   4,N   3)    175.7020         0.000000   
    181. D(C   7,C   6,C   5,C  29)     42.8063         0.000000   
    182. D(H  35,C   6,C   5,N   4)    -10.8422         0.000000   
    183. D(H  35,C   6,C   5,C  29)    168.8221         0.000000   
    184. D(C   7,C   6,C   5,N   4)   -136.8579         0.000000   
    185. D(H  36,C   6,C   5,N   4)    104.4943         0.000000   
    186. D(C  27,C   7,C   6,H  36)     80.3856         0.000000   
    187. D(C  27,C   7,C   6,C   5)    -36.7139         0.000000   
    188. D(C  27,C   7,C   6,H  35)   -160.7298         0.000000   
    189. D(S   8,C   7,C   6,H  36)   -159.1782         0.000000   
    190. D(S   8,C   7,C   6,C   5)     83.7223         0.000000   
    191. D(S   8,C   7,C   6,H  35)    -40.2935         0.000000   
    192. D(C   9,S   8,C   7,H  37)    -44.8624         0.000000   
    193. D(C   9,S   8,C   7,C   6)     74.8805         0.000000   
    194. D(C   9,S   8,C   7,C  27)   -162.2287         0.000000   
    195. D(H  38,C   9,S   8,C   7)    -37.2088         0.000000   
    196. D(O  26,C   9,S   8,C   7)     77.3426         0.000000   
    197. D(C  10,C   9,S   8,C   7)   -155.2842         0.000000   
    198. D(O  11,C  10,C   9,O  26)    173.4975         0.000000   
    199. D(O  11,C  10,C   9,S   8)     46.3646         0.000000   
    200. D(C  15,C  10,C   9,H  38)    166.9509         0.000000   
    201. D(C  15,C  10,C   9,O  26)     51.6067         0.000000   
    202. D(C  15,C  10,C   9,S   8)    -75.5261         0.000000   
    203. D(O  11,C  10,C   9,H  38)    -71.1583         0.000000   
    204. D(C  12,O  11,C  10,H  39)    -51.2874         0.000000   
    205. D(C  12,O  11,C  10,C  15)   -166.9777         0.000000   
    206. D(C  12,O  11,C  10,C   9)     69.4253         0.000000   
    207. D(O  14,C  12,O  11,C  10)      2.5638         0.000000   
    208. D(C  13,C  12,O  11,C  10)   -176.4668         0.000000   
    209. D(H  42,C  13,C  12,O  11)    -56.0214         0.000000   
    210. D(H  41,C  13,C  12,O  14)   -113.1679         0.000000   
    211. D(H  41,C  13,C  12,O  11)     65.8641         0.000000   
    212. D(H  40,C  13,C  12,O  14)      6.1530         0.000000   
    213. D(H  40,C  13,C  12,O  11)   -174.8150         0.000000   
    214. D(C  20,C  15,C  10,H  39)     68.1216         0.000000   
    215. D(C  20,C  15,C  10,O  11)   -175.6243         0.000000   
    216. D(C  20,C  15,C  10,C   9)    -51.1325         0.000000   
    217. D(O  16,C  15,C  10,H  39)    -50.3455         0.000000   
    218. D(O  16,C  15,C  10,O  11)     65.9087         0.000000   
    219. D(O  16,C  15,C  10,C   9)   -169.5995         0.000000   
    220. D(C  17,O  16,C  15,H  43)    -25.8680         0.000000   
    221. D(C  17,O  16,C  15,C  10)   -144.7550         0.000000   
    222. D(C  17,O  16,C  15,C  20)     95.6818         0.000000   
    223. D(O  19,C  17,O  16,C  15)     -0.5416         0.000000   
    224. D(C  18,C  17,O  16,C  15)    179.6920         0.000000   
    225. D(H  46,C  18,C  17,O  16)    -60.1578         0.000000   
    226. D(H  45,C  18,C  17,O  19)      1.0635         0.000000   
    227. D(H  44,C  18,C  17,O  19)   -118.0251         0.000000   
    228. D(H  44,C  18,C  17,O  16)     61.7460         0.000000   
    229. D(H  45,C  18,C  17,O  16)   -179.1654         0.000000   
    230. D(O  21,C  20,C  15,O  16)    -69.7195         0.000000   
    231. D(O  21,C  20,C  15,C  10)    172.8338         0.000000   
    232. D(C  25,C  20,C  15,H  43)    -69.8557         0.000000   
    233. D(C  25,C  20,C  15,O  16)    169.8324         0.000000   
    234. D(C  25,C  20,C  15,C  10)     52.3857         0.000000   
    235. D(O  21,C  20,C  15,H  43)     50.5924         0.000000   
    236. D(C  22,O  21,C  20,H  47)     39.5184         0.000000   
    237. D(C  22,O  21,C  20,C  25)    -82.1965         0.000000   
    238. D(C  22,O  21,C  20,C  15)    157.2696         0.000000   
    239. D(O  24,C  22,O  21,C  20)      1.6375         0.000000   
    240. D(C  23,C  22,O  21,C  20)   -178.6253         0.000000   
    241. D(H  50,C  23,C  22,O  21)     59.7082         0.000000   
    242. D(H  49,C  23,C  22,O  24)     -1.5697         0.000000   
    243. D(H  49,C  23,C  22,O  21)    178.6915         0.000000   
    244. D(H  48,C  23,C  22,O  24)    117.5775         0.000000   
    245. D(H  48,C  23,C  22,O  21)    -62.1613         0.000000   
    246. D(H  51,C  25,C  20,H  47)   -171.5520         0.000000   
    247. D(H  51,C  25,C  20,O  21)    -50.2889         0.000000   
    248. D(H  51,C  25,C  20,C  15)     69.3503         0.000000   
    249. D(O  26,C  25,C  20,H  47)     64.0456         0.000000   
    250. D(O  26,C  25,C  20,O  21)   -174.6914         0.000000   
    251. D(O  26,C  25,C  20,C  15)    -55.0522         0.000000   
    252. D(C   9,O  26,C  25,H  52)    178.2754         0.000000   
    253. D(C   9,O  26,C  25,H  51)    -67.5798         0.000000   
    254. D(C   9,O  26,C  25,C  20)     57.2215         0.000000   
    255. D(C  25,O  26,C   9,H  38)   -171.5283         0.000000   
    256. D(C  25,O  26,C   9,C  10)    -54.8595         0.000000   
    257. D(C  25,O  26,C   9,S   8)     73.1566         0.000000   
    258. D(C  31,C  27,C   7,H  37)     65.4540         0.000000   
    259. D(C  31,C  27,C   7,S   8)   -178.1547         0.000000   
    260. D(C  31,C  27,C   7,C   6)    -56.2349         0.000000   
    261. D(O  28,C  27,C   7,H  37)    176.0662         0.000000   
    262. D(O  28,C  27,C   7,S   8)    -67.5425         0.000000   
    263. D(O  28,C  27,C   7,C   6)     54.3773         0.000000   
    264. D(C  29,O  28,C  27,H  53)    162.0553         0.000000   
    265. D(C  29,O  28,C  27,C  31)     44.3998         0.000000   
    266. D(C  29,O  28,C  27,C   7)    -74.6243         0.000000   
    267. D(H  54,C  29,O  28,C  27)   -158.3113         0.000000   
    268. D(O  30,C  29,O  28,C  27)    -36.9840         0.000000   
    269. D(C   5,C  29,O  28,C  27)     77.7226         0.000000   
    270. D(H  54,C  29,C   5,N   4)     -7.2210         0.000000   
    271. D(O  30,C  29,C   5,C   6)     49.9897         0.000000   
    272. D(O  30,C  29,C   5,N   4)   -130.3932         0.000000   
    273. D(O  28,C  29,C   5,C   6)    -64.7723         0.000000   
    274. D(O  28,C  29,C   5,N   4)    114.8448         0.000000   
    275. D(C  31,O  30,C  29,H  54)    134.2588         0.000000   
    276. D(C  31,O  30,C  29,O  28)     12.4407         0.000000   
    277. D(C  31,O  30,C  29,C   5)   -100.3167         0.000000   
    278. D(H  56,C  31,O  30,C  29)   -102.1619         0.000000   
    279. D(H  55,C  31,O  30,C  29)    139.0624         0.000000   
    280. D(C  27,C  31,O  30,C  29)     15.7771         0.000000   
    281. D(H  55,C  31,C  27,H  53)     84.5118         0.000000   
    282. D(H  55,C  31,C  27,O  28)   -158.6680         0.000000   
    283. D(H  55,C  31,C  27,C   7)    -42.1348         0.000000   
    284. D(O  30,C  31,C  27,H  53)   -154.5408         0.000000   
    285. D(O  30,C  31,C  27,O  28)    -37.7205         0.000000   
    286. D(O  30,C  31,C  27,C   7)     78.8126         0.000000   
    -----------------------------------------------------------------

Number of atoms                         .... 57
Number of degrees of freedom            .... 286


         *************************************************************
         *                GEOMETRY OPTIMIZATION CYCLE   1            *
         *************************************************************
---------------------------------
CARTESIAN COORDINATES (ANGSTROEM)
---------------------------------
  S      6.494742   -3.563334    0.554413
  C      5.565402   -2.229647    0.878887
  N      5.276914   -1.844375    2.143805
  N      5.042217   -1.444980   -0.112798
  N      4.237264   -0.388706    0.189334
  C      3.833217    0.398745   -0.764140
  C      2.856924    1.503833   -0.395098
  C      1.746314    1.593333   -1.458509
  S      0.417151    0.358867   -1.111408
  C     -0.417626    1.177392    0.307338
  C     -1.172582    0.186099    1.224369
  O     -0.385634   -0.986775    1.551919
  C      0.679143   -0.785720    2.371987
  C      1.443855   -2.059931    2.553261
  O      0.981643    0.286564    2.875285
  C     -2.485024   -0.280438    0.580008
  O     -3.233699   -0.997603    1.600984
  C     -3.971537   -2.063107    1.187996
  C     -4.666209   -2.684075    2.361058
  O     -4.069210   -2.465355    0.038486
  C     -3.313496    0.924421    0.112380
  O     -4.449136    0.440825   -0.633059
  C     -5.516745    1.276853   -0.712666
  C     -6.623007    0.626694   -1.484586
  O     -5.570213    2.398635   -0.231093
  C     -2.461578    1.837213   -0.768734
  O     -1.257171    2.252276   -0.126082
  C      2.286835    1.324987   -2.893453
  O      2.975967    0.060774   -2.924147
  C      4.198035    0.375086   -2.251359
  O      4.579934    1.704799   -2.630332
  C      3.423220    2.253057   -3.283920
  H      4.719406   -1.006270    2.257863
  H      5.625810   -2.348645    2.945314
  H      5.232774   -1.723673   -1.068656
  H      2.482082    1.353942    0.620724
  H      3.425654    2.441872   -0.380898
  H      1.286659    2.587520   -1.431459
  H      0.367036    1.645276    0.903495
  H     -1.435195    0.692745    2.164452
  H      2.240123   -1.902787    3.286280
  H      1.892583   -2.359422    1.602969
  H      0.779540   -2.842163    2.929202
  H     -2.268918   -0.960799   -0.253253
  H     -5.350013   -1.960537    2.811886
  H     -5.245205   -3.548483    2.023587
  H     -3.927993   -3.024129    3.091716
  H     -3.658383    1.464241    1.004890
  H     -6.292730    0.425291   -2.506629
  H     -7.483867    1.300352   -1.521186
  H     -6.926798   -0.298593   -0.988463
  H     -2.236448    1.360057   -1.729961
  H     -3.022306    2.743754   -1.020555
  H      1.481347    1.340104   -3.635324
  H      4.984057   -0.334820   -2.507438
  H      3.271947    3.294283   -2.986819
  H      3.612928    2.211167   -4.361865

----------------------------
CARTESIAN COORDINATES (A.U.)
----------------------------
  NO LB      ZA    FRAG     MASS         X           Y           Z
   0 S    16.0000    0    32.060   12.273284   -6.733725    1.047689
   1 C     6.0000    0    12.011   10.517086   -4.213422    1.660856
   2 N     7.0000    0    14.007    9.971922   -3.485364    4.051204
   3 N     7.0000    0    14.007    9.528409   -2.730616   -0.213157
   4 N     7.0000    0    14.007    8.007269   -0.734548    0.357789
   5 C     6.0000    0    12.011    7.243730    0.753519   -1.444015
   6 C     6.0000    0    12.011    5.398804    2.841833   -0.746627
   7 C     6.0000    0    12.011    3.300055    3.010963   -2.756183
   8 S    16.0000    0    32.060    0.788301    0.678160   -2.100257
   9 C     6.0000    0    12.011   -0.789199    2.224948    0.580785
  10 C     6.0000    0    12.011   -2.215859    0.351676    2.313722
  11 O     8.0000    0    15.999   -0.728743   -1.864735    2.932702
  12 C     6.0000    0    12.011    1.283394   -1.484796    4.482406
  13 C     6.0000    0    12.011    2.728491   -3.892705    4.824964
  14 O     8.0000    0    15.999    1.855036    0.541527    5.433501
  15 C     6.0000    0    12.011   -4.696015   -0.529951    1.096056
  16 O     8.0000    0    15.999   -6.110806   -1.885196    3.025421
  17 C     6.0000    0    12.011   -7.505117   -3.898707    2.244987
  18 C     6.0000    0    12.011   -8.817857   -5.072167    4.461753
  19 O     8.0000    0    15.999   -7.689692   -4.658846    0.072728
  20 C     6.0000    0    12.011   -6.261600    1.746903    0.212367
  21 O     8.0000    0    15.999   -8.407649    0.833039   -1.196308
  22 C     6.0000    0    12.011  -10.425137    2.412902   -1.346744
  23 C     6.0000    0    12.011  -12.515669    1.184280   -2.805461
  24 O     8.0000    0    15.999  -10.526177    4.532763   -0.436702
  25 C     6.0000    0    12.011   -4.651708    3.471829   -1.452697
  26 O     8.0000    0    15.999   -2.375709    4.256185   -0.238260
  27 C     6.0000    0    12.011    4.321492    2.503863   -5.467834
  28 O     8.0000    0    15.999    5.623763    0.114846   -5.525837
  29 C     6.0000    0    12.011    7.933136    0.708810   -4.254452
  30 O     8.0000    0    15.999    8.654821    3.221603   -4.970607
  31 C     6.0000    0    12.011    6.468948    4.257661   -6.205709
  32 H     1.0000    0     1.008    8.918385   -1.901575    4.266743
  33 H     1.0000    0     1.008   10.631240   -4.438296    5.565837
  34 H     1.0000    0     1.008    9.888510   -3.257270   -2.019467
  35 H     1.0000    0     1.008    4.690455    2.558580    1.172998
  36 H     1.0000    0     1.008    6.473548    4.614469   -0.719793
  37 H     1.0000    0     1.008    2.431433    4.889704   -2.705065
  38 H     1.0000    0     1.008    0.693598    3.109121    1.707358
  39 H     1.0000    0     1.008   -2.712125    1.309098    4.090222
  40 H     1.0000    0     1.008    4.233219   -3.595746    6.210169
  41 H     1.0000    0     1.008    3.576464   -4.458661    3.029172
  42 H     1.0000    0     1.008    1.473117   -5.370910    5.535390
  43 H     1.0000    0     1.008   -4.287634   -1.815647   -0.478579
  44 H     1.0000    0     1.008  -10.110059   -3.704878    5.313694
  45 H     1.0000    0     1.008   -9.912001   -6.705661    3.824025
  46 H     1.0000    0     1.008   -7.422831   -5.714776    5.842497
  47 H     1.0000    0     1.008   -6.913342    2.767014    1.898967
  48 H     1.0000    0     1.008  -11.891536    0.803684   -4.736842
  49 H     1.0000    0     1.008  -14.142459    2.457309   -2.874625
  50 H     1.0000    0     1.008  -13.089751   -0.564259   -1.867924
  51 H     1.0000    0     1.008   -4.226274    2.570135   -3.269153
  52 H     1.0000    0     1.008   -5.711331    5.184944   -1.928569
  53 H     1.0000    0     1.008    2.799340    2.532430   -6.869767
  54 H     1.0000    0     1.008    9.418503   -0.632718   -4.738371
  55 H     1.0000    0     1.008    6.183084    6.225293   -5.644270
  56 H     1.0000    0     1.008    6.827444    4.178500   -8.242730

--------------------------------
INTERNAL COORDINATES (ANGSTROEM)
--------------------------------
 S      0   0   0     0.000000000000     0.00000000     0.00000000
 C      1   0   0     1.657611904592     0.00000000     0.00000000
 N      2   1   0     1.353394763863   122.10685569     0.00000000
 N      2   1   3     1.368526208861   122.26326747   179.86288595
 N      4   2   1     1.361964698775   120.65532033   177.26401155
 C      5   4   2     1.300940323107   119.36762059   174.99104694
 C      6   5   4     1.520052468620   117.48994646   175.70195742
 C      7   6   5     1.540229780592   109.73965250   223.14205205
 S      8   7   6     1.846905436108   110.50785961    83.72229473
 C      9   8   7     1.838389520170   100.03373117    74.88049957
 C     10   9   8     1.547115454239   113.18698092   204.71582682
 O     11  10   9     1.449899850707   112.79068391    46.36463525
 C     12  11  10     1.358927774894   116.22664966    69.42529369
 C     13  12  11     1.497083290449   110.32710691   183.53322201
 O     13  12  11     1.222541657147   124.89535504     2.56376947
 C     11  10   9     1.534718825731   111.29773988   284.47388615
 O     16  11  10     1.455071092911   107.17170329   190.40045049
 C     17  16  11     1.360243645971   116.88085833   215.24503609
 C     18  17  16     1.498080405203   109.78428447   179.69201948
 O     18  17  16     1.221767861966   125.93849133   359.45835839
 C     16  11  10     1.535163512805   110.53706045   308.86750669
 O     21  16  11     1.441950971267   108.61941923   172.83376256
 C     22  21  16     1.358333194807   116.28827064   157.26955948
 C     23  22  21     1.497458788857   110.09802233   181.37469705
 O     23  22  21     1.221951814466   125.19218231     1.63747950
 C     21  16  11     1.528173875900   110.09491548    52.38565368
 O     26  21  16     1.426840954249   112.62082259   304.94783131
 C      8   7   6     1.556674921200   112.08867785   323.28605151
 O     28   8   7     1.440166498857   109.70154414    54.37730804
 C     29  28   8     1.429995077933   101.88564214   285.37573936
 O     30  29  28     1.434435095534   107.87716827   323.01596495
 C     31  30  29     1.437272203204   105.03941047    12.44066882
 H      3   2   1     1.013037209807   117.26145446   178.69427928
 H      3   2   1     1.009174577958   121.75989983     0.73058718
 H      4   2   1     1.013728896038   116.98631058     1.11368420
 H      7   6   5     1.093100257309   110.25353686   349.15782574
 H      7   6   5     1.097074572862   106.96575220   104.49431189
 H      8   7   6     1.095637810818   109.76681022   202.06254167
 H     10   9   8     1.090877197648   106.62434412   322.79115113
 H     11  10   9     1.099732605670   109.14915082   166.42381997
 H     14  13  12     1.093642454791   109.31541782   185.18497865
 H     14  13  12     1.092751830165   109.73837292    65.86413925
 H     14  13  12     1.092946913866   109.89728861   303.97860102
 H     16  11  10     1.097231419382   109.81059479    71.91967590
 H     19  18  17     1.092859109604   109.79985606    61.74597773
 H     19  18  17     1.093766078429   109.35719251   180.83457659
 H     19  18  17     1.092913856869   109.83144676   299.84224031
 H     21  16  11     1.098602191546   107.91450061   291.73099783
 H     24  23  22     1.092802799679   109.80694327   297.83871135
 H     24  23  22     1.093725102832   109.34763567   178.69153326
 H     24  23  22     1.092969823545   109.81057421    59.70816124
 H     26  21  16     1.096502946081   111.09893929    69.35025482
 H     26  21  16     1.095283657646   109.97101694   185.51724543
 H     28   8   7     1.095176708332   111.51010633   177.08001968
 H     30  29  28     1.089666723159   111.26562352   201.68867258
 H     32  31  30     1.093299642278   110.55269145   139.06244157
 H     32  31  30     1.095312430491   107.07071777   257.83808517

---------------------------
INTERNAL COORDINATES (A.U.)
---------------------------
 S      0   0   0     0.000000000000     0.00000000     0.00000000
 C      1   0   0     3.132432536006     0.00000000     0.00000000
 N      2   1   0     2.557545454784   122.10685569     0.00000000
 N      2   1   3     2.586139741840   122.26326747   179.86288595
 N      4   2   1     2.573740284753   120.65532033   177.26401155
 C      5   4   2     2.458420927247   119.36762059   174.99104694
 C      6   5   4     2.872482874882   117.48994646   175.70195742
 C      7   6   5     2.910612468628   109.73965250   223.14205205
 S      8   7   6     3.490145469495   110.50785961    83.72229473
 C      9   8   7     3.474052720592   100.03373117    74.88049957
 C     10   9   8     2.923624506069   113.18698092   204.71582682
 O     11  10   9     2.739913639449   112.79068391    46.36463525
 C     12  11  10     2.568001330328   116.22664966    69.42529369
 C     13  12  11     2.829077418618   110.32710691   183.53322201
 O     13  12  11     2.310268919318   124.89535504     2.56376947
 C     11  10   9     2.900198273205   111.29773988   284.47388615
 O     16  11  10     2.749685870988   107.17170329   190.40045049
 C     17  16  11     2.570487966291   116.88085833   215.24503609
 C     18  17  16     2.830961692427   109.78428447   179.69201948
 O     18  17  16     2.308806658342   125.93849133   359.45835839
 C     16  11  10     2.901038609991   110.53706045   308.86750669
 O     21  16  11     2.724892434236   108.61941923   172.83376256
 C     22  21  16     2.566877736799   116.28827064   157.26955948
 C     23  22  21     2.829787007773   110.09802233   181.37469705
 O     23  22  21     2.309154278189   125.19218231     1.63747950
 C     21  16  11     2.887830110464   110.09491548    52.38565368
 O     26  21  16     2.696338640193   112.62082259   304.94783131
 C      8   7   6     2.941689280611   112.08867785   323.28605151
 O     28   8   7     2.721520270087   109.70154414    54.37730804
 C     29  28   8     2.702299070148   101.88564214   285.37573936
 O     30  29  28     2.710689487444   107.87716827   323.01596495
 C     31  30  29     2.716050843954   105.03941047    12.44066882
 H      3   2   1     1.914362890006   117.26145446   178.69427928
 H      3   2   1     1.907063573656   121.75989983     0.73058718
 H      4   2   1     1.915669987554   116.98631058     1.11368420
 H      7   6   5     2.065660123233   110.25353686   349.15782574
 H      7   6   5     2.073170491198   106.96575220   104.49431189
 H      8   7   6     2.070455404415   109.76681022   202.06254167
 H     10   9   8     2.061459149295   106.62434412   322.79115113
 H     11  10   9     2.078193445260   109.14915082   166.42381997
 H     14  13  12     2.066684727984   109.31541782   185.18497865
 H     14  13  12     2.065001691353   109.73837292    65.86413925
 H     14  13  12     2.065370346122   109.89728861   303.97860102
 H     16  11  10     2.073466888165   109.81059479    71.91967590
 H     19  18  17     2.065204420112   109.79985606    61.74597773
 H     19  18  17     2.066918342803   109.35719251   180.83457659
 H     19  18  17     2.065307877450   109.83144676   299.84224031
 H     21  16  11     2.076057272147   107.91450061   291.73099783
 H     24  23  22     2.065098009776   109.80694327   297.83871135
 H     24  23  22     2.066840910147   109.34763567   178.69153326
 H     24  23  22     2.065413639139   109.81057421    59.70816124
 H     26  21  16     2.072090273132   111.09893929    69.35025482
 H     26  21  16     2.069786151910   109.97101694   185.51724543
 H     28   8   7     2.069584046998   111.51010633   177.08001968
 H     30  29  28     2.059171684019   111.26562352   201.68867258
 H     32  31  30     2.066036906220   110.55269145   139.06244157
 H     32  31  30     2.069840524708   107.07071777   257.83808517

---------------------
BASIS SET INFORMATION
---------------------
There are 5 groups of distinct atoms

 Group   1 Type S   : 10s7p1d contracted to 4s3p1d pattern {5311/511/1}
 Group   2 Type C   : 7s4p1d contracted to 3s2p1d pattern {511/31/1}
 Group   3 Type N   : 7s4p1d contracted to 3s2p1d pattern {511/31/1}
 Group   4 Type O   : 7s4p1d contracted to 3s2p1d pattern {511/31/1}
 Group   5 Type H   : 4s1p contracted to 2s1p pattern {31/1}

Atom   0S    basis set group =>   1
Atom   1C    basis set group =>   2
Atom   2N    basis set group =>   3
Atom   3N    basis set group =>   3
Atom   4N    basis set group =>   3
Atom   5C    basis set group =>   2
Atom   6C    basis set group =>   2
Atom   7C    basis set group =>   2
Atom   8S    basis set group =>   1
Atom   9C    basis set group =>   2
Atom  10C    basis set group =>   2
Atom  11O    basis set group =>   4
Atom  12C    basis set group =>   2
Atom  13C    basis set group =>   2
Atom  14O    basis set group =>   4
Atom  15C    basis set group =>   2
Atom  16O    basis set group =>   4
Atom  17C    basis set group =>   2
Atom  18C    basis set group =>   2
Atom  19O    basis set group =>   4
Atom  20C    basis set group =>   2
Atom  21O    basis set group =>   4
Atom  22C    basis set group =>   2
Atom  23C    basis set group =>   2
Atom  24O    basis set group =>   4
Atom  25C    basis set group =>   2
Atom  26O    basis set group =>   4
Atom  27C    basis set group =>   2
Atom  28O    basis set group =>   4
Atom  29C    basis set group =>   2
Atom  30O    basis set group =>   4
Atom  31C    basis set group =>   2
Atom  32H    basis set group =>   5
Atom  33H    basis set group =>   5
Atom  34H    basis set group =>   5
Atom  35H    basis set group =>   5
Atom  36H    basis set group =>   5
Atom  37H    basis set group =>   5
Atom  38H    basis set group =>   5
Atom  39H    basis set group =>   5
Atom  40H    basis set group =>   5
Atom  41H    basis set group =>   5
Atom  42H    basis set group =>   5
Atom  43H    basis set group =>   5
Atom  44H    basis set group =>   5
Atom  45H    basis set group =>   5
Atom  46H    basis set group =>   5
Atom  47H    basis set group =>   5
Atom  48H    basis set group =>   5
Atom  49H    basis set group =>   5
Atom  50H    basis set group =>   5
Atom  51H    basis set group =>   5
Atom  52H    basis set group =>   5
Atom  53H    basis set group =>   5
Atom  54H    basis set group =>   5
Atom  55H    basis set group =>   5
Atom  56H    basis set group =>   5
---------------------------------
AUXILIARY/J BASIS SET INFORMATION
---------------------------------
There are 5 groups of distinct atoms

 Group   1 Type S   : 14s5p5d2f1g contracted to 8s4p3d1f1g pattern {71111111/2111/311/2/1}
 Group   2 Type C   : 12s5p4d2f1g contracted to 6s4p3d1f1g pattern {711111/2111/211/2/1}
 Group   3 Type N   : 12s5p4d2f1g contracted to 6s4p3d1f1g pattern {711111/2111/211/2/1}
 Group   4 Type O   : 12s5p4d2f1g contracted to 6s4p3d1f1g pattern {711111/2111/211/2/1}
 Group   5 Type H   : 5s2p1d contracted to 3s1p1d pattern {311/2/1}

Atom   0S    basis set group =>   1
Atom   1C    basis set group =>   2
Atom   2N    basis set group =>   3
Atom   3N    basis set group =>   3
Atom   4N    basis set group =>   3
Atom   5C    basis set group =>   2
Atom   6C    basis set group =>   2
Atom   7C    basis set group =>   2
Atom   8S    basis set group =>   1
Atom   9C    basis set group =>   2
Atom  10C    basis set group =>   2
Atom  11O    basis set group =>   4
Atom  12C    basis set group =>   2
Atom  13C    basis set group =>   2
Atom  14O    basis set group =>   4
Atom  15C    basis set group =>   2
Atom  16O    basis set group =>   4
Atom  17C    basis set group =>   2
Atom  18C    basis set group =>   2
Atom  19O    basis set group =>   4
Atom  20C    basis set group =>   2
Atom  21O    basis set group =>   4
Atom  22C    basis set group =>   2
Atom  23C    basis set group =>   2
Atom  24O    basis set group =>   4
Atom  25C    basis set group =>   2
Atom  26O    basis set group =>   4
Atom  27C    basis set group =>   2
Atom  28O    basis set group =>   4
Atom  29C    basis set group =>   2
Atom  30O    basis set group =>   4
Atom  31C    basis set group =>   2
Atom  32H    basis set group =>   5
Atom  33H    basis set group =>   5
Atom  34H    basis set group =>   5
Atom  35H    basis set group =>   5
Atom  36H    basis set group =>   5
Atom  37H    basis set group =>   5
Atom  38H    basis set group =>   5
Atom  39H    basis set group =>   5
Atom  40H    basis set group =>   5
Atom  41H    basis set group =>   5
Atom  42H    basis set group =>   5
Atom  43H    basis set group =>   5
Atom  44H    basis set group =>   5
Atom  45H    basis set group =>   5
Atom  46H    basis set group =>   5
Atom  47H    basis set group =>   5
Atom  48H    basis set group =>   5
Atom  49H    basis set group =>   5
Atom  50H    basis set group =>   5
Atom  51H    basis set group =>   5
Atom  52H    basis set group =>   5
Atom  53H    basis set group =>   5
Atom  54H    basis set group =>   5
Atom  55H    basis set group =>   5
Atom  56H    basis set group =>   5


           ************************************************************
           *        Program running with 8 parallel MPI-processes     *
           *              working on a common directory               *
           ************************************************************
------------------------------------------------------------------------------
                             ORCA STARTUP CALCULATIONS
                           -- RI-GTO INTEGRALS CHOSEN --
------------------------------------------------------------------------------
------------------------------------------------------------------------------
                   ___                                                        
                  /   \      - P O W E R E D   B Y -                         
                 /     \                                                     
                 |  |  |   _    _      __       _____    __    __             
                 |  |  |  | |  | |    /  \     |  _  \  |  |  /  |          
                  \  \/   | |  | |   /    \    | | | |  |  | /  /          
                 / \  \   | |__| |  /  /\  \   | |_| |  |  |/  /          
                |  |  |   |  __  | /  /__\  \  |    /   |      \           
                |  |  |   | |  | | |   __   |  |    \   |  |\   \          
                \     /   | |  | | |  |  |  |  | |\  \  |  | \   \       
                 \___/    |_|  |_| |__|  |__|  |_| \__\ |__|  \__/        
                                                                              
                      - O R C A' S   B I G   F R I E N D -                    
                                      &                                       
                       - I N T E G R A L  F E E D E R -                       
                                                                              
 v1 FN, 2020, v2 2021, v3 2022-2024                                           
------------------------------------------------------------------------------


----------------------
SHARK INTEGRAL PACKAGE
----------------------

Number of atoms                             ...     57
Number of basis functions                   ...    581
Number of shells                            ...    271
Maximum angular momentum                    ...      2
Integral batch strategy                     ... SHARK/LIBINT Hybrid
RI-J (if used) integral strategy            ... SPLIT-RIJ (Revised 2003 algorithm where possible)
Printlevel                                  ...      1
Contraction scheme used                     ... SEGMENTED contraction
Prescreening option                         ... SCHWARTZ
   Thresh                                   ... 2.500e-11
   Tcut                                     ... 2.500e-12
   Tpresel                                  ... 2.500e-12 
Coulomb Range Separation                    ... NOT USED
Exchange Range Separation                   ... Long Range
   Mu parameter                             ... 2.500e-01
   Scaling (regular/separated)              ... 1.957e-01 8.043e-01
Robust (split-)RI terms used:
  metric    (central integrals)             ... YES
  density   (r.h.s.  integrals)             ... YES
  potential (l.h.s.  integrals)             ... YES
Multipole approximations                    ... NOT USED
Finite Nucleus Model                        ... NOT USED
CABS basis                                  ... NOT available
Auxiliary Coulomb fitting basis             ... AVAILABLE
   # of basis functions in Aux-J            ...   1847
   # of shells in Aux-J                     ...    609
   Maximum angular momentum in Aux-J        ...      4
Auxiliary J/K fitting basis                 ... NOT available
Auxiliary Correlation fitting basis         ... NOT available
Auxiliary 'external' fitting basis          ... NOT available

Checking pre-screening integrals            ... done (  0.0 sec) Dimension = 271
   => SHARK Basis and OBASIS are compatible. Storing Pre-screening
Shell pair information
Shell pair cut-off parameter TPreSel        ...   2.5e-12
Total number of shell pairs                 ...     36856
Shell pairs after pre-screening             ...     21553
Total number of primitive shell pairs       ...    136492
Primitive shell pairs kept                  ...     48426
          la=0 lb=0:   6752 shell pairs
          la=1 lb=0:   8105 shell pairs
          la=1 lb=1:   2500 shell pairs
          la=2 lb=0:   2492 shell pairs
          la=2 lb=1:   1482 shell pairs
          la=2 lb=2:    222 shell pairs

Checking whether 4 symmetric matrices of dimension 581 fit in memory
:Max Core in MB      =   3000.00
 MB in use           =     29.79
 MB left             =   2970.21
 MB needed           =      5.16
 Data fit in memory  = YES
Calculating RI/J V-Matrix + Cholesky decomp.... done (  0.1 sec)
Calculating Nuclear repulsion               ... done (  0.0 sec) ENN=   3889.772011805546 Eh

Diagonalization of the overlap matrix:
Smallest eigenvalue                        ... 6.409e-04
Time for diagonalization                   ...    0.038 sec
Threshold for overlap eigenvalues          ... 1.000e-07
Number of eigenvalues below threshold      ... 0
Time for construction of square roots      ...    0.016 sec
Total time needed                          ...    0.057 sec

-------------------
DFT GRID GENERATION
-------------------

General Integration Accuracy     IntAcc      ... 4.388
Radial Grid Type                 RadialGrid  ... OptM3 with GC (2021)
Angular Grid (max. ang.)         AngularGrid ... 4 (Lebedev-302)
Angular grid pruning method      GridPruning ... 4 (adaptive)
Weight generation scheme         WeightScheme... mBecke (2022)
Basis function cutoff            BFCut       ... 1.0000e-11
Integration weight cutoff        WCut        ... 1.0000e-14
Partially contracted basis set               ... off
Rotationally invariant grid construction     ... off
Angular grids for H and He will be reduced by one unit

Total number of grid points                  ...   273157
Total number of batches                      ...     4298
Average number of points per batch           ...       63
Average number of grid points per atom       ...     4792

--------------------
COSX GRID GENERATION
--------------------

GRIDX 1
-------
General Integration Accuracy     IntAcc      ... 3.816
Radial Grid Type                 RadialGrid  ... OptM3 with GC (2021)
Angular Grid (max. ang.)         AngularGrid ... 1 (Lebedev-50)
Angular grid pruning method      GridPruning ... 4 (adaptive)
Weight generation scheme         WeightScheme... mBecke (2022)
Basis function cutoff            BFCut       ... 1.0000e-11
Integration weight cutoff        WCut        ... 1.0000e-14
Partially contracted basis set               ... on
Rotationally invariant grid construction     ... off
Angular grids for H and He will be reduced by one unit

Total number of grid points                  ...    36629
Total number of batches                      ...      322
Average number of points per batch           ...      113
Average number of grid points per atom       ...      643
UseSFitting                                  ... on

GRIDX 2
-------
General Integration Accuracy     IntAcc      ... 4.020
Radial Grid Type                 RadialGrid  ... OptM3 with GC (2021)
Angular Grid (max. ang.)         AngularGrid ... 2 (Lebedev-110)
Angular grid pruning method      GridPruning ... 4 (adaptive)
Weight generation scheme         WeightScheme... mBecke (2022)
Basis function cutoff            BFCut       ... 1.0000e-11
Integration weight cutoff        WCut        ... 1.0000e-14
Partially contracted basis set               ... on
Rotationally invariant grid construction     ... off
Angular grids for H and He will be reduced by one unit

Total number of grid points                  ...    74589
Total number of batches                      ...      615
Average number of points per batch           ...      121
Average number of grid points per atom       ...     1309
UseSFitting                                  ... on

GRIDX 3
-------
General Integration Accuracy     IntAcc      ... 4.338
Radial Grid Type                 RadialGrid  ... OptM3 with GC (2021)
Angular Grid (max. ang.)         AngularGrid ... 3 (Lebedev-194)
Angular grid pruning method      GridPruning ... 4 (adaptive)
Weight generation scheme         WeightScheme... mBecke (2022)
Basis function cutoff            BFCut       ... 1.0000e-11
Integration weight cutoff        WCut        ... 1.0000e-14
Partially contracted basis set               ... on
Rotationally invariant grid construction     ... off
Angular grids for H and He will be reduced by one unit

Total number of grid points                  ...   163746
Total number of batches                      ...     1309
Average number of points per batch           ...      125
Average number of grid points per atom       ...     2873
UseSFitting                                  ... on
Grids setup in   2.9 sec
Initializing property integral containers    ... done (  0.0 sec)

SHARK setup successfully completed in   3.3 seconds

Maximum memory used throughout the entire STARTUP-calculation: 80.3 MB


           ************************************************************
           *        Program running with 8 parallel MPI-processes     *
           *              working on a common directory               *
           ************************************************************
-------------------------------------------------------------------------------
                                 ORCA GUESS
                   Start orbitals & Density for SCF / CASSCF
-------------------------------------------------------------------------------

------------
SCF SETTINGS
------------
Hamiltonian:
 Density Functional     Method          .... DFT(GTOs)
 Exchange Functional    Exchange        .... WB97X-D3
 Correlation Functional Correlation     .... WB97X-D3
 Gradients option       PostSCFGGA      .... off
 Hybrid DFT is turned on
   Fraction HF Exchange ScalHFX         ....  0.195728
   Scaling of DF-GGA-X  ScalDFX         ....  0.000000
   Scaling of DF-GGA-C  ScalDFC         ....  1.000000
   Scaling of DF-LDA-C  ScalLDAC        ....  1.000000
   Perturbative correction              ....  0.000000
 Long-range corrected/Screened/Range-Separated Hybrid DFT is turned on
   Amount of maximum screened exact exchange              ....  0.804272
   Range separation parameter mu (erf(mu*r12)/r12)        ....  0.250000
 RI-approximation to the Coulomb term is turned on
   Number of AuxJ basis functions       .... 1847
   RIJ-COSX (HFX calculated with COS-X)).... on


General Settings:
 Integral files         IntName         .... ../inputs/compound_09_wb97xd3_def2svp_cpcm_water_opt
 Hartree-Fock type      HFTyp           .... RHF
 Total Charge           Charge          ....    0
 Multiplicity           Mult            ....    1
 Number of Electrons    NEL             ....  258
 Basis Dimension        Dim             ....  581
 Nuclear Repulsion      ENuc            ....   3889.7720118055 Eh

Convergence Acceleration:
 AO-DIIS                CNVDIIS         .... on
   Start iteration      DIISMaxIt       ....    12
   Startup error        DIISStart       ....  0.200000
   # of expansion vecs  DIISMaxEq       ....     5
   Bias factor          DIISBfac        ....   1.050
   Max. coefficient     DIISMaxC        ....  10.000
 MO-DIIS                CNVKDIIS        .... off
 Trust-Rad. Augm. Hess. CNVTRAH         .... auto
   Auto Start mean grad. ratio tolernc. ....  1.125000
   Auto Start start iteration           ....    50
   Auto Start num. interpolation iter.  ....    10
   Max. Number of Micro iterations      ....    24
   Max. Number of Macro iterations      .... Maxiter - #DIIS iter
   Number of Davidson start vectors     ....     2
   Converg. threshold    (grad. norm)   ....   1.000e-05
   Grad. Scal. Fac. for Micro threshold ....   0.100
   Minimum threshold for Micro iter.    ....   1.000e-02
   NR start threshold (gradient norm)   ....   1.000e-04
   Initial trust radius                 ....   0.400
   Minimum AH scaling param. (alpha)    ....   1.000
   Maximum AH scaling param. (alpha)    .... 1000.000
   Quad. conv. algorithm                .... NR
   White noise on init. David. guess    .... on
   Maximum white noise                  ....   0.010
   Pseudo random numbers                .... off
   Inactive MOs                         .... canonical
   Orbital update algorithm             .... Taylor
   Preconditioner                       .... Diag
   Full preconditioner red. dimension   ....   250
 SOSCF                 CNVSOSCF           .... on
   Start iteration     SOSCFMaxIt         ....   150
   Startup grad/error  SOSCFStart         ....  0.003300
   Hessian update      SOSCFHessUp        .... L-BFGS
   Autom. constraints  SOSCFAutoConstrain .... off
 Level Shifting         CNVShift        .... on
   Level shift para.    LevelShift      ....    0.2500
   Turn off err/grad.   ShiftErr        ....    0.0010
 Zerner damping         CNVZerner       .... off
 Static damping         CNVDamp         .... on
   Fraction old density DampFac         ....    0.7000
   Max. Damping (<1)    DampMax         ....    0.9800
   Min. Damping (>=0)   DampMin         ....    0.0000
   Turn off err/grad.   DampErr         ....    0.1000

SCF Procedure:
 Maximum # iterations   MaxIter         ....   125
 SCF integral mode      SCFMode         .... Direct
   Integral package                     .... SHARK and LIBINT hybrid scheme
 Reset frequency        DirectResetFreq ....    20
 Integral Threshold     Thresh          ....  2.500e-11 Eh
 Primitive CutOff       TCut            ....  2.500e-12 Eh

Convergence Tolerance:
 Convergence Check Mode ConvCheckMode   .... Total+1el-Energy
 Convergence forced     ConvForced      .... 0
 Energy Change          TolE            ....  1.000e-08 Eh
 1-El. energy change                    ....  1.000e-05 Eh
 Orbital Gradient       TolG            ....  1.000e-05
 Orbital Rotation angle TolX            ....  1.000e-05
 DIIS Error             TolErr          ....  5.000e-07

------------------------------
INITIAL GUESS: MODEL POTENTIAL
------------------------------
Loading Hartree-Fock densities                     ... done
Calculating cut-offs                               ... done
Initializing the effective Hamiltonian             ... done
Setting up the integral package (SHARK)            ... done
Starting the Coulomb interaction                   ... done (   0.3 sec)
Making the grid                                    ... done (   0.4 sec)
Mapping shells                                     ... done
Starting the XC term evaluation                    ... done (   0.1 sec)
  promolecular density results
     # of electrons  =    257.990143549
     EX              =   -242.284289704
     EC              =     -8.932750440
     EX+EC           =   -251.217040144
Transforming the Hamiltonian                       ... done (   0.0 sec)
Diagonalizing the Hamiltonian                      ... done (   0.0 sec)
Back transforming the eigenvectors                 ... done (   0.0 sec)
Now organizing SCF variables                       ... done
                      ------------------
                      INITIAL GUESS DONE (   0.9 sec)
                      ------------------
             **** ENERGY FILE WAS UPDATED (../inputs/compound_09_wb97xd3_def2svp_cpcm_water_opt.en.tmp) ****
Finished Guess after   1.4 sec
Maximum memory used throughout the entire GUESS-calculation: 39.0 MB


           ************************************************************
           *        Program running with 8 parallel MPI-processes     *
           *              working on a common directory               *
           ************************************************************

-------------------------------------------------------------------------------------------
                                      ORCA LEAN-SCF
                              memory conserving SCF solver
-------------------------------------------------------------------------------------------

--------------------
CPCM SOLVATION MODEL
--------------------
CPCM parameters:
  Epsilon                                         ...      80.1510
  Refrac                                          ...       1.3328
  Rsolv                                           ...       1.3000
  Surface type                                    ... GAUSSIAN VDW
  Discretization scheme                           ... Constant charge density
    Threshold for H atoms                         ...       5.0000 (charges/Ang^2)
    Threshold for non-H atoms                     ...       5.0000 (charges/Ang^2)
  Epsilon function type                           ...         CPCM
Solvent:                                          ... WATER
Radii:
  Scheme                                          ... Element-dependent radii
  Radius for S  used is    4.0818 Bohr (=   2.1600 Ang.)
  Radius for C  used is    3.8550 Bohr (=   2.0400 Ang.)
  Radius for N  used is    3.5149 Bohr (=   1.8600 Ang.)
  Radius for O  used is    3.4469 Bohr (=   1.8240 Ang.)
  Radius for H  used is    2.4944 Bohr (=   1.3200 Ang.)
Calculating surface                               ...        done! (  0.0s)
Cavity surface points                             ...         4672
Cavity Volume                                     ...    3548.3427
Cavity Surface-area                               ...    1807.6178
Calculating surface distance matrix               ...        done! (  0.1s)
Performing Cholesky decomposition & store         ...        done! (  0.5s)
Overall time for CPCM initialization              ...                 0.6s

----------------------------------------D-I-I-S--------------------------------------------
Iteration    Energy (Eh)           Delta-E    RMSDP     MaxDP     DIISErr   Damp  Time(sec)
-------------------------------------------------------------------------------------------
               ***  Starting incremental Fock matrix formation  ***
    1    -2336.2528055100951860     0.00e+00  4.02e-03  7.18e-02  2.43e-01  0.700  11.5
    2    -2336.5087221505332309    -2.56e-01  2.78e-03  5.90e-02  1.17e-01  0.700   5.4
                               ***Turning on AO-DIIS***
    3    -2336.6282116242114171    -1.19e-01  1.39e-03  3.88e-02  4.80e-02  0.700   5.2
    4    -2336.7006187033352944    -7.24e-02  2.96e-03  8.31e-02  3.02e-02  0.000   5.0
    5    -2336.8589544145647778    -1.58e-01  2.99e-04  4.52e-03  4.58e-03  0.000   5.4
                              *** Initializing SOSCF ***
---------------------------------------S-O-S-C-F--------------------------------------
Iteration    Energy (Eh)           Delta-E    RMSDP     MaxDP     MaxGrad    Time(sec)
--------------------------------------------------------------------------------------
    6    -2336.8594398472046123    -4.85e-04  1.43e-04  2.10e-03  2.25e-03     4.8
               *** Restarting incremental Fock matrix formation ***
    7    -2336.8594900466528088    -5.02e-05  9.77e-05  1.66e-03  5.17e-04    11.5
    8    -2336.8595199847636650    -2.99e-05  9.23e-05  1.28e-03  2.38e-04     7.5
    9    -2336.8595233248438490    -3.34e-06  3.27e-05  4.51e-04  1.64e-04     7.3
   10    -2336.8595270867422187    -3.76e-06  6.19e-06  9.51e-05  1.79e-05     6.8
   11    -2336.8595271556127955    -6.89e-08  2.26e-06  5.21e-05  1.84e-05     5.3
   12    -2336.8595271756962575    -2.01e-08  7.12e-07  1.61e-05  4.83e-06     4.1
   13    -2336.8595271821945971    -6.50e-09  3.77e-07  8.26e-06  2.56e-06     3.3
                 **** Energy Check signals convergence ****

               *****************************************************
               *                     SUCCESS                       *
               *           SCF CONVERGED AFTER  13 CYCLES          *
               *****************************************************

Recomputing exchange energy using gridx3       ... done (   20.283 sec)
Old exchange energy                            :    -75.948853060 Eh
New exchange energy                            :    -75.948906716 Eh
Exchange energy change after final integration :     -0.000053655 Eh
Total energy after final integration           :  -2336.859580854 Eh
             **** ENERGY FILE WAS UPDATED (../inputs/compound_09_wb97xd3_def2svp_cpcm_water_opt.en.tmp) ****

----------------
TOTAL SCF ENERGY
----------------

Total Energy       :      -2336.85958085387119 Eh          -63589.18201 eV

Components:
Nuclear Repulsion  :       3889.77201180554630 Eh          105846.07755 eV
Electronic Energy  :      -6226.57802465005898 Eh         -169433.80190 eV
One Electron Energy:     -10947.93852872096249 Eh         -297908.55274 eV
Two Electron Energy:       4721.36050407090352 Eh          128474.75085 eV
CPCM Dielectric    :         -0.05351435419186 Eh              -1.45620 eV

Virial components:
Potential Energy   :      -4656.87251013872446 Eh         -126719.94332 eV
Kinetic Energy     :       2320.01292928485373 Eh           63130.76131 eV
Virial Ratio       :          2.00726144727746

DFT components:
N(Alpha)           :      129.000248015258 electrons
N(Beta)            :      129.000248015258 electrons
N(Total)           :      258.000496030515 electrons
E(XC)              :     -179.984414393390 Eh       

CPCM Solvation Model Properties:
Surface-charge          :         -0.02393209436473
Corrected charge        :         -0.00000000000000
Outlying charge corr.   :          0.00002559584380 Eh               0.00070 eV
Free-energy (cav+disp)  :  This term is not implemented in the current solvation scheme

---------------
SCF CONVERGENCE
---------------

  Last Energy change         ...    6.4983e-09  Tolerance :   1.0000e-08
  Last MAX-Density change    ...    8.2565e-06  Tolerance :   1.0000e-07
  Last RMS-Density change    ...    3.7675e-07  Tolerance :   5.0000e-09
  Last DIIS Error            ...    2.2516e-03  Tolerance :   5.0000e-07
  Last Orbital Gradient      ...    2.5641e-06  Tolerance :   1.0000e-05
  Last Orbital Rotation      ...    9.1978e-06  Tolerance :   1.0000e-05


----------------
ORBITAL ENERGIES
----------------

  NO   OCC          E(Eh)            E(eV) 
   0   2.0000     -88.943207     -2420.2677 
   1   2.0000     -88.876008     -2418.4391 
   2   2.0000     -19.305539      -525.3304 
   3   2.0000     -19.301901      -525.2314 
   4   2.0000     -19.299273      -525.1599 
   5   2.0000     -19.276452      -524.5389 
   6   2.0000     -19.273589      -524.4610 
   7   2.0000     -19.267240      -524.2882 
   8   2.0000     -19.245714      -523.7025 
   9   2.0000     -19.242057      -523.6030 
  10   2.0000     -19.238776      -523.5137 
  11   2.0000     -14.506483      -394.7415 
  12   2.0000     -14.491187      -394.3252 
  13   2.0000     -14.461998      -393.5310 
  14   2.0000     -10.440194      -284.0921 
  15   2.0000     -10.436924      -284.0032 
  16   2.0000     -10.434706      -283.9428 
  17   2.0000     -10.416030      -283.4346 
  18   2.0000     -10.414126      -283.3828 
  19   2.0000     -10.390378      -282.7366 
  20   2.0000     -10.383281      -282.5435 
  21   2.0000     -10.375931      -282.3434 
  22   2.0000     -10.370861      -282.2055 
  23   2.0000     -10.367352      -282.1100 
  24   2.0000     -10.355760      -281.7946 
  25   2.0000     -10.349776      -281.6317 
  26   2.0000     -10.347690      -281.5750 
[...]

 55 H s       :     0.900234  s :     0.900234
      pz      :     0.013162  p :     0.066310
      px      :     0.009962
      py      :     0.043185

 56 H s       :     0.900977  s :     0.900977
      pz      :     0.044119  p :     0.065829
      px      :     0.009863
      py      :     0.011846



                      *****************************
                      * MAYER POPULATION ANALYSIS *
                      *****************************

  NA   - Mulliken gross atomic population
  ZA   - Total nuclear charge
  QA   - Mulliken gross atomic charge
  VA   - Mayer's total valence
  BVA  - Mayer's bonded valence
  FA   - Mayer's free valence

  ATOM       NA         ZA         QA         VA         BVA        FA
  0 S     16.4660    16.0000    -0.4660     1.6300     1.6300     0.0000
  1 C      5.9465     6.0000     0.0535     4.1301     4.1301    -0.0000
  2 N      7.0823     7.0000    -0.0823     3.3449     3.3449    -0.0000
  3 N      7.0678     7.0000    -0.0678     3.2146     3.2146    -0.0000
  4 N      7.0391     7.0000    -0.0391     3.0913     3.0913    -0.0000
  5 C      6.1197     6.0000    -0.1197     4.0457     4.0457    -0.0000
  6 C      5.9226     6.0000     0.0774     3.8930     3.8930     0.0000
  7 C      6.1650     6.0000    -0.1650     3.8647     3.8647    -0.0000
  8 S     16.0666    16.0000    -0.0666     2.1286     2.1286     0.0000
  9 C      5.9616     6.0000     0.0384     3.9431     3.9431    -0.0000
 10 C      5.8093     6.0000     0.1907     3.9007     3.9007    -0.0000
 11 O      8.3124     8.0000    -0.3124     2.1461     2.1461    -0.0000
 12 C      5.8202     6.0000     0.1798     4.2712     4.2712    -0.0000
 13 C      6.0302     6.0000    -0.0302     3.9041     3.9041    -0.0000
 14 O      8.2890     8.0000    -0.2890     2.1992     2.1992     0.0000
 15 C      5.8505     6.0000     0.1495     3.8884     3.8884    -0.0000
 16 O      8.3314     8.0000    -0.3314     2.1166     2.1166    -0.0000
 17 C      5.8352     6.0000     0.1648     4.3140     4.3140     0.0000
 18 C      6.0305     6.0000    -0.0305     3.8921     3.8921     0.0000
 19 O      8.2875     8.0000    -0.2875     2.2154     2.2154    -0.0000
 20 C      5.9148     6.0000     0.0852     3.9895     3.9895     0.0000
 21 O      8.3313     8.0000    -0.3313     2.1124     2.1124    -0.0000
 22 C      5.8294     6.0000     0.1706     4.2941     4.2941     0.0000
 23 C      6.0288     6.0000    -0.0288     3.8954     3.8954     0.0000
 24 O      8.2913     8.0000    -0.2913     2.2052     2.2052    -0.0000
 25 C      5.7387     6.0000     0.2613     3.8861     3.8861     0.0000
 26 O      8.3911     8.0000    -0.3911     2.0792     2.0792     0.0000
 27 C      5.9725     6.0000     0.0275     3.9638     3.9638    -0.0000
 28 O      8.3841     8.0000    -0.3841     2.0343     2.0343    -0.0000
 29 C      5.6908     6.0000     0.3092     4.0149     4.0149    -0.0000
 30 O      8.4147     8.0000    -0.4147     2.0439     2.0439     0.0000
 31 C      5.7373     6.0000     0.2627     3.9179     3.9179    -0.0000
 32 H      0.8361     1.0000     0.1639     1.0591     1.0591     0.0000
 33 H      0.8218     1.0000     0.1782     0.9965     0.9965    -0.0000
 34 H      0.8306     1.0000     0.1694     1.0100     1.0100     0.0000
 35 H      0.9414     1.0000     0.0586     1.0303     1.0303     0.0000
 36 H      0.9104     1.0000     0.0896     0.9903     0.9903     0.0000
 37 H      0.8980     1.0000     0.1020     0.9789     0.9789    -0.0000
 38 H      0.9157     1.0000     0.0843     1.0199     1.0199     0.0000
 39 H      0.9232     1.0000     0.0768     1.0033     1.0033    -0.0000
 40 H      0.9254     1.0000     0.0746     1.0152     1.0152    -0.0000
 41 H      0.9064     1.0000     0.0936     1.0054     1.0054    -0.0000
 42 H      0.9199     1.0000     0.0801     1.0012     1.0012     0.0000
 43 H      0.9444     1.0000     0.0556     1.0528     1.0528     0.0000
 44 H      0.9104     1.0000     0.0896     0.9977     0.9977     0.0000
 45 H      0.9303     1.0000     0.0697     1.0065     1.0065     0.0000
 46 H      0.9121     1.0000     0.0879     0.9983     0.9983     0.0000
 47 H      0.9399     1.0000     0.0601     1.0209     1.0209     0.0000
 48 H      0.9093     1.0000     0.0907     0.9972     0.9972    -0.0000
 49 H      0.9301     1.0000     0.0699     1.0063     1.0063    -0.0000
 50 H      0.9122     1.0000     0.0878     0.9978     0.9978    -0.0000
 51 H      0.9655     1.0000     0.0345     1.0192     1.0192     0.0000
 52 H      0.9353     1.0000     0.0647     0.9981     0.9981    -0.0000
 53 H      0.9192     1.0000     0.0808     0.9897     0.9897    -0.0000
 54 H      0.9383     1.0000     0.0617     1.0065     1.0065    -0.0000
 55 H      0.9333     1.0000     0.0667     0.9852     0.9852    -0.0000
 56 H      0.9328     1.0000     0.0672     0.9826     0.9826    -0.0000

  Mayer bond orders larger than 0.100000
B(  0-S ,  1-C ) :   1.4262 B(  1-C ,  2-N ) :   1.4000 B(  1-C ,  3-N ) :   1.1812 
B(  2-N , 32-H ) :   0.8966 B(  2-N , 33-H ) :   0.9282 B(  3-N ,  4-N ) :   0.9869 
B(  3-N , 34-H ) :   0.9070 B(  4-N ,  5-C ) :   1.9594 B(  5-C ,  6-C ) :   1.0099 
B(  5-C , 29-C ) :   0.9149 B(  6-C ,  7-C ) :   0.9980 B(  6-C , 35-H ) :   0.9428 
B(  6-C , 36-H ) :   0.9080 B(  7-C ,  8-S ) :   1.0018 B(  7-C , 27-C ) :   0.9505 
B(  7-C , 37-H ) :   0.9242 B(  8-S ,  9-C ) :   1.0172 B(  9-C , 10-C ) :   0.9773 
B(  9-C , 26-O ) :   0.9946 B(  9-C , 38-H ) :   0.9166 B( 10-C , 11-O ) :   0.9294 
B( 10-C , 15-C ) :   1.0078 B( 10-C , 39-H ) :   0.9134 B( 11-O , 12-C ) :   1.1300 
B( 12-C , 13-C ) :   1.0485 B( 12-C , 14-O ) :   1.9542 B( 13-C , 40-H ) :   0.9544 
B( 13-C , 41-H ) :   0.9377 B( 13-C , 42-H ) :   0.9521 B( 15-C , 16-O ) :   0.9221 
B( 15-C , 20-C ) :   1.0044 B( 15-C , 43-H ) :   0.9084 B( 16-O , 17-C ) :   1.1105 
B( 17-C , 18-C ) :   1.0339 B( 17-C , 19-O ) :   2.0364 B( 18-C , 44-H ) :   0.9480 
B( 18-C , 45-H ) :   0.9625 B( 18-C , 46-H ) :   0.9492 B( 20-C , 21-O ) :   0.9113 
B( 20-C , 25-C ) :   1.0385 B( 20-C , 47-H ) :   0.9131 B( 21-O , 22-C ) :   1.1147 
B( 22-C , 23-C ) :   1.0383 B( 22-C , 24-O ) :   2.0297 B( 23-C , 48-H ) :   0.9484 
B( 23-C , 49-H ) :   0.9620 B( 23-C , 50-H ) :   0.9487 B( 25-C , 26-O ) :   0.9601 
B( 25-C , 51-H ) :   0.9281 B( 25-C , 52-H ) :   0.9472 B( 27-C , 28-O ) :   0.9357 
B( 27-C , 31-C ) :   1.0490 B( 27-C , 53-H ) :   0.9390 B( 28-O , 29-C ) :   1.0159 
B( 29-C , 30-O ) :   1.0276 B( 29-C , 54-H ) :   0.9428 B( 30-O , 31-C ) :   0.9314 
B( 31-C , 55-H ) :   0.9524 B( 31-C , 56-H ) :   0.9500 

-------
TIMINGS
-------

Total SCF time: 0 days 0 hours 1 min 2 sec 

Total time                  ....      62.124 sec
Sum of individual times     ....      58.527 sec  ( 94.2%)

SCF preparation             ....       1.775 sec  (  2.9%)
Fock matrix formation       ....      54.440 sec  ( 87.6%)
  Startup                   ....       0.013 sec  (  0.0% of F)
  Split-RI-J                ....       2.142 sec  (  3.9% of F)
  Chain of spheres X        ....      50.007 sec  ( 91.9% of F)
  XC integration            ....       2.304 sec  (  4.2% of F)
    XC Preparation          ....       0.000 sec  (  0.0% of XC)
    Basis function eval.    ....       0.794 sec  ( 34.5% of XC)
    Density eval.           ....       0.697 sec  ( 30.3% of XC)
    XC-Functional eval.     ....       0.120 sec  (  5.2% of XC)
    XC-Potential eval.      ....       0.427 sec  ( 18.5% of XC)
  CPCM terms                ....       3.339 sec  (  6.1% of F)
Diagonalization             ....       0.000 sec  (  0.0%)
Density matrix formation    ....       0.045 sec  (  0.1%)
Total Energy calculation    ....       0.036 sec  (  0.1%)
Population analysis         ....       1.808 sec  (  2.9%)
Orbital Transformation      ....       0.071 sec  (  0.1%)
Orbital Orthonormalization  ....       0.000 sec  (  0.0%)
DIIS solution               ....       0.093 sec  (  0.1%)
SOSCF solution              ....       0.258 sec  (  0.4%)
Finished LeanSCF after  65.3 sec

Maximum memory used throughout the entire LEANSCF-calculation: 81.1 MB


-------------------------------------------------------------------------------
                          DFT DISPERSION CORRECTION                            
                                                                               
                              DFTD3 V3.1  Rev 1                                
                              USING zero damping                               
-------------------------------------------------------------------------------
The omegaB97X-D3 functional is recognized. Fit by Chai et al.
Active option DFTDOPT                   ...         3   

molecular C6(AA) [au] = 35584.178258 


            DFT-D V3
 parameters
 s6 scaling factor         :     1.0000 
 rs6 scaling factor        :     1.2810 
 s8 scaling factor         :     1.0000 
 rs8 scaling factor        :     1.0940 
 Damping factor alpha6     :    14.0000 
 Damping factor alpha8     :    16.0000 
 ad hoc parameters k1-k3   :    16.0000     1.3333    -4.0000 

 Edisp/kcal,au: -22.188424778091  -0.035359501854 
 E6   /kcal   : -10.523461561 
 E8   /kcal   : -11.664963217 
 % E8         :  52.572290883 

-------------------------   ----------------
Dispersion correction           -0.035359502
-------------------------   ----------------


-------------------------   --------------------
FINAL SINGLE POINT ENERGY     -2336.913595594573
-------------------------   --------------------

                                *** OPTIMIZATION RUN DONE ***



           ************************************************************
           *        Program running with 8 parallel MPI-processes     *
           *              working on a common directory               *
           ************************************************************

------------------------------------------------------------------------------
                              ORCA PROPERTY CALCULATIONS
------------------------------------------------------------------------------

GBWName                                 ... ../inputs/compound_09_wb97xd3_def2svp_cpcm_water_opt.gbw
Number of atoms                         ...     57
Number of basis functions               ...    581
Max core memory                         ...   3000 MB

Electric properties:
Dipole moment                           ... YES
Quadrupole moment                       ...  NO
Static polarizability (Dipole/Dipole)   ...  NO
Static polarizability (Dipole/Quad.)    ...  NO
Static polarizability (Quad./Quad.)     ...  NO
Static polarizability (Velocity)        ...  NO
Static hyperpolarizability              ...  NO

Atomic electric properties:
Dipole moment                           ...  NO
Quadrupole moment                       ...  NO
Static polarizability                   ...  NO

Choice of electric origin               ... Center of mass
Position of electric origin             ...     0.769579    -0.218852     0.080036

General magnetic properties:
Magnetizability                         ...  NO

EPR properties:
g-Tensor (aka g-matrix)                 ...  NO
Zero-Field splitting spin-orbit         ...  NO
Zero-field splitting spin-spin          ...  NO
Hyperfine couplings                     ...  NO (   0 nuclei)
Quadrupole couplings                    ...  NO (   0 nuclei)
Contact density                         ...  NO (   0 nuclei)

NMR properties:
Chemical shifts                         ...  NO (   0 nuclei)
Spin-rotation constants                 ...  NO (   0 nuclei)
Spin-spin couplings                     ...  NO (   0 nuclei,    0 pairs)

Choice of magnetic origin               ... GIAO
Position of magnetic origin             ...     0.000000     0.000000     0.000000

Properties with geometric perturbations:
SCF Hessian                             ...  NO
IR spectrum                             ...  NO
VCD spectrum                            ...  NO
X-ray spectroscopy properties:
SCF XES/XAS/RIXS spectra                ...  NO

SCF SOC stabilization energy            ...  NO
Diagonal Born-Oppenheimer correction    ...  NO

-------------
DIPOLE MOMENT
-------------

Method             : SCF
Type of density    : Electron Density
Multiplicity       :   1
Irrep              :   0
Energy             : -2336.8782360927193622 Eh
Basis              : AO
                                X                 Y                 Z
Electronic contribution:     13.590669705      -1.160614647       0.346010328
Nuclear contribution   :    -16.414552445       3.080697356      -1.476892783
                        -----------------------------------------
Total Dipole Moment    :     -2.823882740       1.920082709      -1.130882455
                        -----------------------------------------
Magnitude (a.u.)       :      3.597210929
Magnitude (Debye)      :      9.143383545



--------------------
Rotational spectrum 
--------------------
 
Rotational constants in cm-1:             0.006509             0.002387             0.001927 
Rotational constants in MHz :           195.130469            71.572277            57.762036 

Dipole components along the rotational axes: 
x,y,z [a.u.] :    -2.998956     1.960079     0.322923 
x,y,z [Debye]:    -7.622740     4.982125     0.820805 

 

Dipole moment calculation done in   0.7 sec 

Maximum memory used throughout the entire PROP-calculation: 44.3 MB

--------------------------------
SUGGESTED CITATIONS FOR THIS RUN
--------------------------------

Below you find a list of papers that are relevant to this ORCA run
We neither can nor want to force you to cite these papers, but we appreciate if you do
You receive ORCA, which is the product of decades of hard work by many enthusiastic individuals, for free
The only thing we kindly ask in return is that you cite our papers,
We deeply appreciate it, if you show your appreciation for ORCA by not just citing the generic ORCA reference.

Please note that relegating all ORCA citations to the supporting information does *not* help us.
SI sections are not indexed - citations you put there will not count into any citation statistics
But we need these citations in order to attract the funding resources that allow us to do what we are doing

Therefore, if you are a happy ORCA user, please consider citing a few of the papers listed below in the main body of your paper

In addition to the list printed below, the program has created the file ../inputs/compound_09_wb97xd3_def2svp_cpcm_water_opt.bibtex that contains the list in bibtex format
You can import this file easily into all common literature databanks and citation aid programs

It goes without saying that in many instances, there are alternative algorithms to achieve similar
results as the ones you have gotten from ORCA. It is, of course, also the case that in some instances
ORCA just re-implements algorithms worked out by others. We are fully aware of that and we are also
fully appreciative of our colleagues work. Hence this citation list should not be read as indicating
that the listed papers, which are focused on our own work, are the only ones worth citing. It simply
meant to make it easier for users to cite ORCA specific papers. It is not a substitute for doing your
own literature research and citing the relevant literature in a scientifically appropriate manner.

List of essential papers. We consider these as the minimum necessary citations

  1. Neese, F.
     Software update: the ORCA program system, version 6.0
     WIRES Comput. Molec. Sci. 2025 15(1), e70019
     doi.org/10.1002/wcms.70019

List of papers to cite with high priority. The work reported in these papers was absolutely
necessary for this run to complete.
Our perspective: the developers of density functionals and basis sets usually get cited in chemistry papers
Good! But without the algorithms to do something with them, the functionals or basis sets would not do anything.
Hence, in our opinion, the algorithm design and method developments papers are equally worthy of getting cited

  1. Neese, F.
     An improvement of the resolution of the identity approximation for the formation of the Coulomb matrix
     J. Comp. Chem. 2003 24(14), 1740-1747
     doi.org/10.1002/jcc.10318
  2. Neese, F.; Wennmohs, F.; Hansen, A.; Becker, U.
     Efficient, approximate and parallel Hartree-Fock and hybrid DFT calculations. A 'chain-of-spheres' algorithm for the Hartree-Fock exchange
     Chem. Phys. 2009 356(1-3), 98-109
     doi.org/10.1016/j.chemphys.2008.10.036
  3. Grimme, S.; Antony, J.; Ehrlich, S.; Krieg, H.
     A consistent and accurate ab initio parametrization of density functional dispersion correction (DFT-D) for the 94 elements H-Pu
     J. Chem. Phys. 2010 132 , 154104
     doi.org/10.1063/1.3382344
  4. Bykov, D.; Petrenko, T.; Izsak, R.; Kossmann, S.; Becker, U.; Valeev, E.; Neese, F.
     Efficient implementation of the analytic second derivatives of Hartree-Fock and hybrid DFT energies: a detailed analysis of different approximations
     Molec. Phys. 2015 113 , 1961-1977
     doi.org/10.1080/00268976.2015.1025114
  5. Garcia-Rates, M.; Neese, F.
     Effect of the Solute Cavity on the Solvation Energy and its Derivatives within the Framework of the Gaussian Charge Scheme
     J. Comput. Chem. 2020 41 , 922-939
     doi.org/10.1002/jcc.26139
  6. Helmich-Paris, B.; de Souza, B.; Neese, F.; Izsák, R.
     An improved chain of spheres for exchange algorithm
     J. Chem. Phys. 2021 155(10), 104109
     doi.org/10.1063/5.0058766
  7. Neese, F.
     The SHARK Integral Generation and Digestion System
     J. Comp. Chem. 2022 44(3), 381
     doi.org/10.1002/jcc.26942

List of suggested additional citations. These are papers that are important in the 'surrounding' of 
of this run, or papers that preceded the highly important papers. If you like your results we are grateful for a citation.

  1. Izsak, R.; Neese, F.
     An overlap fitted chain of spheres exchange method
     J. Chem. Phys. 2011 135 , 144105
     doi.org/10.1063/1.3646921
  2. Izsak, R.; Hansen, A.; Neese, F.
     The resolution of identity and chain of spheres approximations for the LPNO-CCSD singles Fock term
     Molec. Phys. 2012 110 , 2413-2417
     doi.org/10.1080/00268976.2012.687466
  3. Neese, F.
     The ORCA program system
     WIRES Comput. Molec. Sci. 2012 2(1), 73-78
     doi.org/10.1002/wcms.81
  4. Izsak, R.; Neese, F.; Klopper, W.
     Robust fitting techniques in the chain of spheres approximation to the Fock exchange: The role of the complementary space
     J. Chem. Phys. 2013 139 , 
     doi.org/10.1063/1.4819264
  5. Neese, F.
     Software update: the ORCA program system, version 4.0
     WIRES Comput. Molec. Sci. 2018 8(1), 1-6
     doi.org/10.1002/wcms.1327
  6. Neese, F.; Wennmohs, F.; Becker, U.; Riplinger, C.
     The ORCA quantum chemistry program package
     J. Chem. Phys. 2020 152(22), 224108
     doi.org/10.1063/5.0004608
  7. Neese, F.
     Software update: The ORCA program system—Version 5.0
     WIRES Comput. Molec. Sci. 2022 12(1), e1606
     doi.org/10.1002/wcms.1606

List of optional additional citations

  1. Neese, F.
     Approximate second-order SCF convergence for spin unrestricted wavefunctions
     Chem. Phys. Lett. 2000 325(1-3), 93-98
     doi.org/10.1016/s0009-2614(00)00662-x

Timings for individual modules:

Sum of individual times          ...     6264.406 sec (= 104.407 min)
Startup calculation              ...      184.321 sec (=   3.072 min)   2.9 %
SCF iterations                   ...     4499.800 sec (=  74.997 min)  71.8 %
Property calculations            ...        1.345 sec (=   0.022 min)   0.0 %
SCF Gradient evaluation          ...     1576.112 sec (=  26.269 min)  25.2 %
Geometry relaxation              ...        2.829 sec (=   0.047 min)   0.0 %
                             ****ORCA TERMINATED NORMALLY****
TOTAL RUN TIME: 0 days 3 hours 55 minutes 3 seconds 533 msec
