
                                 *****************
                                 * O   R   C   A *
                                 *****************

                                            #,                                       
                                            ###                                      
                                            ####                                     
                                            #####                                    
                                            ######                                   
                                           ########,                                 
                                     ,,################,,,,,                         
                               ,,#################################,,                 
                          ,,##########################################,,             
                       ,#########################################, ''#####,          
                    ,#############################################,,   '####,        
                  ,##################################################,,,,####,       
                ,###########''''           ''''###############################       
              ,#####''   ,,,,##########,,,,          '''####'''          '####       
            ,##' ,,,,###########################,,,                        '##       
           ' ,,###''''                  '''############,,,                           
         ,,##''                                '''############,,,,        ,,,,,,###''
      ,#''                                            '''#######################'''  
     '                                                          ''''####''''         
             ,#######,   #######,   ,#######,      ##                                
            ,#'     '#,  ##    ##  ,#'     '#,    #''#        ,####,    ,#,          
            ##       ##  ##   ,#'  ##            #'  '#       #'       ,# #          
            ##       ##  #######   ##           ,######,      #####,      #          
            '#,     ,#'  ##    ##  '#,     ,#' ,#      #,     #,   #      #          
             '#######'   ##     ##  '#######'  #'      '#     '####' #    #          



                #########################################################
                #                        -***-                          #
                #          Department of theory and spectroscopy        #
                #                                                       #
                #                      Frank Neese                      #
                #                                                       #
                #     Directorship, Architecture, Infrastructure        #
                #                    SHARK, DRIVERS                     #
                #        Core code/Algorithms in most modules           #
                #                                                       #
                #        Max Planck Institute fuer Kohlenforschung      #
                #                Kaiser Wilhelm Platz 1                 #
                #                 D-45470 Muelheim/Ruhr                 #
                #                      Germany                          #
                #                                                       #
                #                  All rights reserved                  #
                #                        -***-                          #
                #########################################################


                         Program Version 6.1.1  -  RELEASE   -
                                (GIT: $487d211c$)
                          ($2025-11-21 10:33:24 +0100$)


 With contributions from (in alphabetic order):
[Max-Planck-Institut fuer Kohlenforschung]                               
  Daniel Aravena         : Magnetic Suceptibility                        
  Michael Atanasov       : Ab Initio Ligand Field Theory (pilot matlab implementation)
  Alexander A. Auer      : GIAO ZORA, VPT2 properties, NMR spectrum      
  Ute Becker             : All parallelization in ORCA, NUMFREQ, NUMCALC 
  Giovanni Bistoni       : ED, misc. LED, open-shell LED, HFLD           
  Dmytro Bykov           : pre 5.0 version of the SCF Hessian            
  Marcos Casanova-Páez   : Triplet and SCS-CIS(D). UHF-(DLPNO)-IP/EA/STEOM-CCSD. UHF-CVS-IP/STEOM-CCSD   
  Vijay G. Chilkuri      : MRCI spin determinant printing, contributions to CSF-ICE 
  Pauline Colinet        : FMM embedding                                 
  Dipayan Datta          : RHF DLPNO-CCSD density                        
  Achintya Kumar Dutta   : EOM-CC, STEOM-CC                              
  Nicolas Foglia         : Exact transition moments, OPA infrastructure, MCD improvements    
  Dmitry Ganyushin       : Spin-Orbit,Spin-Spin,Magnetic field MRCI      
  Miquel Garcia-Rates    : C-PCM and meta-GGA Hessian, CCSD/C-PCM, Gaussian charge scheme 
  Tiago L. C. Gouveia    : GS-ROHF, GS-ROCIS                             
  Yang Guo               : DLPNO-NEVPT2, F12-NEVPT2, CIM, IAO-localization        
  Andreas Hansen         : Spin unrestricted coupled pair/coupled cluster methods 
  Ingolf Harden          : AUTO-CI MPn and infrastructure                
  Benjamin Helmich-Paris : MC-RPA, TRAH-(SCF,CASSCF), AVAS, COSX integrals, SCF dyn. polar., MC-PDFT, srDFT 
  Lee Huntington         : MR-EOM, pCC                                   
  Robert Izsak           : Overlap fitted RIJCOSX, COSX-SCS-MP3, EOM     
  Riya Kayal             : Wick's Theorem for AUTO-CI, AUTO-CI UHF-CCSDT 
  Emily Kempfer          : AUTO-CI RHF CISDT and CCSDT, approximate NEVPT4
  Christian Kollmar      : KDIIS, OOCD, Brueckner-CCSD(T), CCSD density, CASPT2, CASPT2-K, improved NEVPT2 
  Axel Koslowski         : Symmetry handling                             
  Simone Kossmann        : meta-GGA functionals, TD-DFT gradient, OOMP2, (MP2 Hessian; deprecated post 5.0) 
  Lucas Lang             : DCDCAS, Hyperfine gauge corrections, ICE-SOC+SSC
  Marvin Lechner         : AUTO-CI (C++ implementation), FIC-MRCC        
  Spencer Leger          : CASSCF response                               
  Dagmar Lenk            : GEPOL surface, SMD, ORCA-2-JSON               
  Dimitrios Liakos       : Extrapolation schemes; Compound Job, Property file
  Dimitrios Manganas     : Further ROCIS development; embedding schemes. LFT, Crystal Embedding 
  Dimitrios Pantazis     : SARC Basis sets                               
  Anastasios Papadopoulos: AUTO-CI, single reference methods and gradients 
  Taras Petrenko         : pre 6.0 DFT Hessian and TD-DFT gradient,  ECA, NRVS 
  Petra Pikulova         : Analytic Raman intensities                    
  Peter Pinski           : DLPNO-MP2, DLPNO-MP2 Gradient                 
  Shashank Vittal Rao    : ES-AILFT, MagRelax                            
  Christoph Reimann      : Effective Core Potentials                     
  Marius Retegan         : Local ZFS, SOC                                
  Christoph Riplinger    : Optimizer, TS searches, QM/MM, DLPNO-CCSD(T), (RO)-DLPNO pert. Triples 
  Michael Roemelt        : Original ROCIS implementation, recursive CI coupling coefficients
  Masaaki Saitow         : Open-shell DLPNO-CCSD energy and density      
  Barbara Sandhoefer     : DKH picture change effects                    
  Yorick L. A. Schmerwitz: GMF and freeze-and-release deltaSCF, NEB S-IDPP initial path                    
  Kantharuban Sivalingam : CASSCF convergence/infrastructure, NEVPT2, NEVPT3, NEVPT4(SD), FIC-MRCI and CEPA variants
  Bernardo de Souza      : ESD, SOC TD-DFT                               
  Georgi L. Stoychev     : AutoAux, RI-MP2 NMR, DLPNO-MP2 response, X2C  
  Van Anh Tran           : RI-MP2 g-tensors                              
  Willem Van den Heuvel  : Paramagnetic NMR                              
  Zikuan Wang            : NOTCH, Electric field optimization            
  Frank Wennmohs         : Technical directorship and infrastructure     
  Hang Xu                : AUTO-CI-Response properties                   
                                                                         
[FACCTs GmbH]                                                            
  Markus Bursch, Nicolas Foglia, Miquel Garcia-Rates, Ingolf Harden, Hagen Neugebauer, Anastasios Papadopoulos, 
  Christoph Riplinger, Bernardo de Souza, Georgi L. Stoychev                                                    
                                                                 
  APM, various basis sets, CI-OPT, improved COSX, DLPNO-Multilevel,           
  DOCKER, DRACO, updates on ESD, Fragmentator, GOAT, IRC, LR-CPCM, L-BFGS, MBIS, meta-GGA TD-DFT gradient, ML-optimized integration grids, 
  MM, NACMEs, nearIR, NEB, NEB-TS, NL-DFT gradient (VV10), 2- and 3-layer-ONIOM, interface openCOSMO-RS, QMMM,   
  Crystal-QMMM, RESP, rigid body optimization, SF, symmetry and pop. for TD-DFT, various functionals, SOLVATOR                                   
                                                                         
[Other institutions]                                                     
  V. Asgeirsson          : NEB                                           
  Christoph Bannwarth    : sTDA-DFT, sTD-DFT, PBEh-3c, B97-3c, D3        
  Giovanni Bistoni       : ETS/NOCV, ADLD/ADEX, COVALED                  
  Martin Brehm           : Molecular dynamics                            
  Ronald Cardenas        : ETS/NOCV                                      
  Martina Colucci        : COVALED                                       
  Sebastian Ehlert       : rSCAN, r2SCAN, r2SCAN-3c, D4, dhf basis sets  
  Marvin Friede          : D4 for Fr, Ra, Ac-Lr                          
  Lars Goerigk           : TD-DFT with DH, B97 family of functionals     
  Stefan Grimme          : VdW corrections, initial TS optimization, DFT functionals, gCP, sTDA/sTD-DF 
  Waldemar Hujo          : DFT-NL                                        
  H. Jonsson             : NEB                                           
  Holger Kruse           : gCP                                           
  Marcel Mueller         : wB97X-3c, vDZP basis set                      
  Hagen Neugebauer       : wr2SCAN, Native XTB                           
  Gianluca Regni         : ADLD/ADEX                                     
  Tobias Risthaus        : pre 6.0 range-separated hybrid DFT and stability analysis
  Lukas Wittmann         : regularized MP2, r2SCAN double-hybrids, wr2SCAN        
                                                                         
We gratefully acknowledge several colleagues who have allowed us to      
interface, adapt or use parts of their codes:                            
  Ed Valeev, F. Pavosevic, A. Kumar             : LibInt (2-el integral package), F12 methods 
  Garnet Chan, S. Sharma, J. Yang, R. Olivares  : DMRG                   
  Ulf Ekstrom                                   : XCFun DFT Library      
  Mihaly Kallay                                 : mrcc  (arbitrary order and MRCC methods)
  Frank Weinhold                                : gennbo (NPA and NBO analysis)           
  Simon Mueller                                 : openCOSMO-RS                            
  Christopher J. Cramer and Donald G. Truhlar   : smd solvation model                     
  S Lehtola, MJT Oliveira, MAL Marques          : LibXC Library                           
  Liviu Ungur et al                             : ANISO software                          


 Your calculation uses the libint2 library for the computation of 2-el integrals
 For citations please refer to: http://libint.valeyev.net

 Your ORCA version has been built with support for libXC version: 7.0.0
 For citations please refer to: https://libxc.gitlab.io

 This ORCA versions uses:
   CBLAS   interface :  Fast vector & matrix operations
   LAPACKE interface :  Fast linear algebra routines
   SCALAPACK package :  Parallel linear algebra routines
   Shared memory     :  Shared parallel matrices
   BLAS/LAPACK       :  OpenBLAS 0.3.29  USE64BITINT DYNAMIC_ARCH NO_AFFINITY SkylakeX SINGLE_THREADED
        Core in use  :  SkylakeX
   Copyright (c) 2011-2014, The OpenBLAS Project


  ***********************************
  * Starting time: Sat Jul 11 09:10:57 2026
  * Host name:     tomasz-Precision-5820-Tower
  * Process ID:    452705
  * Working dir.:  /data/BIOFILM_INSILICO_SUPPORT/01_qm_orca_xtb/compound_11/outputs
  ***********************************

NOTE: MaxCore=3000 MB was set to SCF,MP2,MDCI,CIPSI,MRCI,RASCI and CIS
      => If you want to overwrite this, your respective input block should be placed after the MaxCore statement


***************************************
The coordinates will be read from file: ../outputs/compound_11_wb97xd3_def2svp_cpcm_water_opt.xyz
***************************************


Your calculation utilizes the atom-pairwise dispersion correction
with the zero-damping scheme (D30)


XCFun DFT library Copyright 2009-2010 Ulf Ekstrom and contributors.
See http://admol.org/xcfun for more information.
This is free software; see the source code for copying conditions.
There is ABSOLUTELY NO WARRANTY; not even for MERCHANTABILITY or FITNESS FOR A PARTICULAR PURPOSE.
For details see the documentation.
Scientific users of this library should cite U. Ekstrom, L. Visscher, R. Bast, A. J. Thorvaldsen and K. Ruud;
J.Chem.Theor.Comp. 2010, DOI: 10.1021/ct100117s
XCFun Version 0.99 

Warning: RI is on but no J-basis has been assigned. Assigning Def2/J (nothing to worry about!)
================================================================================

----- Orbital basis set information -----
Your calculation utilizes the basis: def2-SVP
   F. Weigend and R. Ahlrichs, Phys. Chem. Chem. Phys. 7, 3297 (2005).

----- AuxJ basis set information -----
Your calculation utilizes the auxiliary basis: def2/J
   H-Rn: F. Weigend, Phys. Chem. Chem. Phys. 8, 1057 (2006).
   Fr-Lr: K. Eichkorn, F. Weigend, O. Treutler, R. Ahlrichs; Theor. Chem. Acc. 97, 119 (1997).

================================================================================
                                        WARNINGS
                       Please study these warnings very carefully!
================================================================================


================================================================================
                                       INPUT FILE
================================================================================
NAME = compound_11_wb97xd3_def2svp_cpcm_water_freq.inp
|  1> ! wB97X-D3 def2-SVP CPCM(Water) TightSCF Freq
|  2> 
|  3> %pal
|  4>   nprocs 8
|  5> end
|  6> 
|  7> %maxcore 3000
|  8> 
|  9> * xyzfile 0 1 ../outputs/compound_11_wb97xd3_def2svp_cpcm_water_opt.xyz
| 10> 
| 11>                          ****END OF INPUT****
================================================================================

                       ****************************
                       * Single Point Calculation *
                       ****************************

---------------------------------
CARTESIAN COORDINATES (ANGSTROEM)
---------------------------------
  O     -0.235379    0.131768    3.072910
  C     -0.669373   -0.032446    1.958788
  C     -0.333574   -1.220181    1.082614
  C     -0.349406   -0.878609   -0.413256
  N      0.952963   -0.373161   -0.844585
  N      1.678508    0.371170    0.043336
  C      2.783815    0.777390   -0.496044
  N      3.685304    1.568465    0.117249
  S      2.989042    0.256356   -2.160312
  C      1.442284   -0.560922   -2.080171
  S      0.749385   -1.398377   -3.345759
  C     -1.433524    0.162707   -0.728940
  O     -1.209409    1.320298    0.067231
  C     -1.684916    0.929495    1.321982
  O     -2.876079    0.217231    1.085362
  C     -2.823848   -0.273026   -0.253808
  H     -1.115568   -1.974497    1.271264
  H      0.622131   -1.658197    1.397806
  H     -0.536734   -1.779980   -1.013203
  H      3.586312    1.691263    1.119219
  H      4.625199    1.632745   -0.253332
  H     -1.401472    0.447530   -1.788239
  H     -1.866181    1.805407    1.960424
  H     -2.963046   -1.364316   -0.270017
  H     -3.616435    0.201892   -0.850517

----------------------------
CARTESIAN COORDINATES (A.U.)
----------------------------
  NO LB      ZA    FRAG     MASS         X           Y           Z
   0 O     8.0000    0    15.999   -0.444803    0.249006    5.806959
   1 C     6.0000    0    12.011   -1.264931   -0.061314    3.701572
   2 C     6.0000    0    12.011   -0.630364   -2.305808    2.045845
   3 C     6.0000    0    12.011   -0.660282   -1.660330   -0.780940
   4 N     7.0000    0    14.007    1.800839   -0.705173   -1.596034
   5 N     7.0000    0    14.007    3.171921    0.701410    0.081893
   6 C     6.0000    0    12.011    5.260648    1.469053   -0.937387
   7 N     7.0000    0    14.007    6.964215    2.963968    0.221568
   8 S    16.0000    0    32.060    5.648470    0.484442   -4.082399
   9 C     6.0000    0    12.011    2.725522   -1.059989   -3.930954
  10 S    16.0000    0    32.060    1.416132   -2.642549   -6.322569
  11 C     6.0000    0    12.011   -2.708968    0.307471   -1.377497
  12 O     8.0000    0    15.999   -2.285451    2.495001    0.127048
  13 C     6.0000    0    12.011   -3.184029    1.756492    2.498184
  14 O     8.0000    0    15.999   -5.435002    0.410507    2.051037
  15 C     6.0000    0    12.011   -5.336299   -0.515945   -0.479627
  16 H     1.0000    0     1.008   -2.108118   -3.731258    2.402340
  17 H     1.0000    0     1.008    1.175658   -3.133539    2.641471
  18 H     1.0000    0     1.008   -1.014280   -3.363676   -1.914677
  19 H     1.0000    0     1.008    6.777147    3.196023    2.115018
  20 H     1.0000    0     1.008    8.740360    3.085441   -0.478729
  21 H     1.0000    0     1.008   -2.648399    0.845709   -3.379282
  22 H     1.0000    0     1.008   -3.526571    3.411724    3.704664
  23 H     1.0000    0     1.008   -5.599345   -2.578184   -0.510259
  24 H     1.0000    0     1.008   -6.834072    0.381520   -1.607244

--------------------------------
INTERNAL COORDINATES (ANGSTROEM)
--------------------------------
 O      0   0   0     0.000000000000     0.00000000     0.00000000
 C      1   0   0     1.206890983089     0.00000000     0.00000000
 C      2   1   0     1.513656300561   124.14880883     0.00000000
 C      3   2   1     1.534454158751   112.78849396   210.71963321
 N      4   3   2     1.462083053289   110.81524427    87.30435948
 N      5   4   3     1.367058479472   117.99364910   325.99853901
 C      6   5   4     1.295240283301   110.68265753   181.90319481
 N      7   6   5     1.347074289022   124.44890306   177.66199076
 S      7   6   5     1.755956906595   113.66348249     0.15123145
 C      5   4   3     1.342148414914   123.22849670   148.66155190
 S     10   5   4     1.668278517264   128.11116984   358.41675356
 C      4   3   2     1.536003563148   111.01104021   325.40332216
 O     12   4   3     1.422720176943   108.99017329    56.84781924
 C     13  12   4     1.397581400566   102.78578671   282.90629568
 O     14  13  12     1.407899209149   106.16677076   318.41452780
 C     15  14  13     1.427044349053   107.49079970    23.10203147
 H      3   2   1     1.102766873064   106.28402227    92.36259311
 H      3   2   1     1.097532185706   109.88315527   336.71284769
 H      4   3   2     1.098862803033   110.57335761   204.44681175
 H      8   7   6     1.014309676767   117.09855451    13.32038155
 H      8   7   6     1.012356528670   119.46881045   162.93938193
 H     12   4   3     1.097390468735   110.71567588   176.64555472
 H     14  13  12     1.098947650659   110.78295249   197.59083197
 H     16  15  14     1.100251087296   110.48391309   124.50484866
 H     16  15  14     1.099910736684   109.53543988   244.85763605

---------------------------
INTERNAL COORDINATES (A.U.)
---------------------------
 O      0   0   0     0.000000000000     0.00000000     0.00000000
 C      1   0   0     2.280693431537     0.00000000     0.00000000
 C      2   1   0     2.860395868945   124.14880883     0.00000000
 C      3   2   1     2.899698125095   112.78849396   210.71963321
 N      4   3   2     2.762936555763   110.81524427    87.30435948
 N      5   4   3     2.583366135258   117.99364910   325.99853901
 C      6   5   4     2.447649413061   110.68265753   181.90319481
 N      7   6   5     2.545601488297   124.44890306   177.66199076
 S      7   6   5     3.318277656431   113.66348249     0.15123145
 C      5   4   3     2.536292935264   123.22849670   148.66155190
 S     10   5   4     3.152589512734   128.11116984   358.41675356
 C      4   3   2     2.902626075078   111.01104021   325.40332216
 O     12   4   3     2.688551499626   108.99017329    56.84781924
 C     13  12   4     2.641046096932   102.78578671   282.90629568
 O     14  13  12     2.660543929455   106.16677076   318.41452780
 C     15  14  13     2.696723000671   107.49079970    23.10203147
 H      3   2   1     2.083927379651   106.28402227    92.36259311
 H      3   2   1     2.074035254148   109.88315527   336.71284769
 H      4   3   2     2.076549756486   110.57335761   204.44681175
 H      8   7   6     1.916767504075   117.09855451    13.32038155
 H      8   7   6     1.913076589073   119.46881045   162.93938193
 H     12   4   3     2.073767447885   110.71567588   176.64555472
 H     14  13  12     2.076710095262   110.78295249   197.59083197
 H     16  15  14     2.079173233539   110.48391309   124.50484866
 H     16  15  14     2.078530064092   109.53543988   244.85763605

---------------------
BASIS SET INFORMATION
---------------------
There are 5 groups of distinct atoms

 Group   1 Type O   : 7s4p1d contracted to 3s2p1d pattern {511/31/1}
 Group   2 Type C   : 7s4p1d contracted to 3s2p1d pattern {511/31/1}
 Group   3 Type N   : 7s4p1d contracted to 3s2p1d pattern {511/31/1}
 Group   4 Type S   : 10s7p1d contracted to 4s3p1d pattern {5311/511/1}
 Group   5 Type H   : 4s1p contracted to 2s1p pattern {31/1}

Atom   0O    basis set group =>   1
Atom   1C    basis set group =>   2
Atom   2C    basis set group =>   2
Atom   3C    basis set group =>   2
Atom   4N    basis set group =>   3
Atom   5N    basis set group =>   3
Atom   6C    basis set group =>   2
Atom   7N    basis set group =>   3
Atom   8S    basis set group =>   4
Atom   9C    basis set group =>   2
Atom  10S    basis set group =>   4
Atom  11C    basis set group =>   2
Atom  12O    basis set group =>   1
Atom  13C    basis set group =>   2
Atom  14O    basis set group =>   1
Atom  15C    basis set group =>   2
Atom  16H    basis set group =>   5
Atom  17H    basis set group =>   5
Atom  18H    basis set group =>   5
Atom  19H    basis set group =>   5
Atom  20H    basis set group =>   5
Atom  21H    basis set group =>   5
Atom  22H    basis set group =>   5
Atom  23H    basis set group =>   5
Atom  24H    basis set group =>   5
---------------------------------
AUXILIARY/J BASIS SET INFORMATION
---------------------------------
There are 5 groups of distinct atoms

 Group   1 Type O   : 12s5p4d2f1g contracted to 6s4p3d1f1g pattern {711111/2111/211/2/1}
 Group   2 Type C   : 12s5p4d2f1g contracted to 6s4p3d1f1g pattern {711111/2111/211/2/1}
 Group   3 Type N   : 12s5p4d2f1g contracted to 6s4p3d1f1g pattern {711111/2111/211/2/1}
 Group   4 Type S   : 14s5p5d2f1g contracted to 8s4p3d1f1g pattern {71111111/2111/311/2/1}
 Group   5 Type H   : 5s2p1d contracted to 3s1p1d pattern {311/2/1}

Atom   0O    basis set group =>   1
Atom   1C    basis set group =>   2
Atom   2C    basis set group =>   2
Atom   3C    basis set group =>   2
Atom   4N    basis set group =>   3
Atom   5N    basis set group =>   3
Atom   6C    basis set group =>   2
Atom   7N    basis set group =>   3
Atom   8S    basis set group =>   4
Atom   9C    basis set group =>   2
Atom  10S    basis set group =>   4
Atom  11C    basis set group =>   2
Atom  12O    basis set group =>   1
Atom  13C    basis set group =>   2
Atom  14O    basis set group =>   1
Atom  15C    basis set group =>   2
Atom  16H    basis set group =>   5
Atom  17H    basis set group =>   5
Atom  18H    basis set group =>   5
Atom  19H    basis set group =>   5
Atom  20H    basis set group =>   5
Atom  21H    basis set group =>   5
Atom  22H    basis set group =>   5
Atom  23H    basis set group =>   5
Atom  24H    basis set group =>   5


           ************************************************************
           *        Program running with 8 parallel MPI-processes     *
           *              working on a common directory               *
           ************************************************************
------------------------------------------------------------------------------
                             ORCA STARTUP CALCULATIONS
                           -- RI-GTO INTEGRALS CHOSEN --
------------------------------------------------------------------------------
------------------------------------------------------------------------------
                   ___                                                        
                  /   \      - P O W E R E D   B Y -                         
                 /     \                                                     
                 |  |  |   _    _      __       _____    __    __             
                 |  |  |  | |  | |    /  \     |  _  \  |  |  /  |          
                  \  \/   | |  | |   /    \    | | | |  |  | /  /          
                 / \  \   | |__| |  /  /\  \   | |_| |  |  |/  /          
                |  |  |   |  __  | /  /__\  \  |    /   |      \           
                |  |  |   | |  | | |   __   |  |    \   |  |\   \          
                \     /   | |  | | |  |  |  |  | |\  \  |  | \   \       
                 \___/    |_|  |_| |__|  |__|  |_| \__\ |__|  \__/        
                                                                              
                      - O R C A' S   B I G   F R I E N D -                    
                                      &                                       
                       - I N T E G R A L  F E E D E R -                       
                                                                              
 v1 FN, 2020, v2 2021, v3 2022-2024                                           
------------------------------------------------------------------------------


----------------------
SHARK INTEGRAL PACKAGE
----------------------

Number of atoms                             ...     25
Number of basis functions                   ...    277
Number of shells                            ...    127
Maximum angular momentum                    ...      2
Integral batch strategy                     ... SHARK/LIBINT Hybrid
RI-J (if used) integral strategy            ... SPLIT-RIJ (Revised 2003 algorithm where possible)
Printlevel                                  ...      1
Contraction scheme used                     ... SEGMENTED contraction
Prescreening option                         ... SCHWARTZ
   Thresh                                   ... 2.500e-11
   Tcut                                     ... 2.500e-12
   Tpresel                                  ... 2.500e-12 
Coulomb Range Separation                    ... NOT USED
Exchange Range Separation                   ... Long Range
   Mu parameter                             ... 2.500e-01
   Scaling (regular/separated)              ... 1.957e-01 8.043e-01
Robust (split-)RI terms used:
  metric    (central integrals)             ... YES
  density   (r.h.s.  integrals)             ... YES
  potential (l.h.s.  integrals)             ... YES
Multipole approximations                    ... NOT USED
Finite Nucleus Model                        ... NOT USED
CABS basis                                  ... NOT available
Auxiliary Coulomb fitting basis             ... AVAILABLE
   # of basis functions in Aux-J            ...    887
   # of shells in Aux-J                     ...    289
   Maximum angular momentum in Aux-J        ...      4
Auxiliary J/K fitting basis                 ... NOT available
Auxiliary Correlation fitting basis         ... NOT available
Auxiliary 'external' fitting basis          ... NOT available

Checking pre-screening integrals            ... done (  0.0 sec) Dimension = 127
   => SHARK Basis and OBASIS are compatible. Storing Pre-screening
Shell pair information
Shell pair cut-off parameter TPreSel        ...   2.5e-12
Total number of shell pairs                 ...      8128
Shell pairs after pre-screening             ...      6846
Total number of primitive shell pairs       ...     31380
Primitive shell pairs kept                  ...     17422
          la=0 lb=0:   1976 shell pairs
          la=1 lb=0:   2488 shell pairs
          la=1 lb=1:    821 shell pairs
          la=2 lb=0:    881 shell pairs
          la=2 lb=1:    571 shell pairs
          la=2 lb=2:    109 shell pairs

Checking whether 4 symmetric matrices of dimension 277 fit in memory
:Max Core in MB      =   3000.00
 MB in use           =     12.15
 MB left             =   2987.85
 MB needed           =      1.18
 Data fit in memory  = YES
Calculating RI/J V-Matrix + Cholesky decomp.... done (  0.0 sec)
Calculating Nuclear repulsion               ... done (  0.0 sec) ENN=   1423.866764566294 Eh

Diagonalization of the overlap matrix:
Smallest eigenvalue                        ... 6.405e-04
Time for diagonalization                   ...    0.006 sec
Threshold for overlap eigenvalues          ... 1.000e-07
Number of eigenvalues below threshold      ... 0
Time for construction of square roots      ...    0.002 sec
Total time needed                          ...    0.009 sec

-------------------
DFT GRID GENERATION
-------------------

General Integration Accuracy     IntAcc      ... 4.388
Radial Grid Type                 RadialGrid  ... OptM3 with GC (2021)
Angular Grid (max. ang.)         AngularGrid ... 4 (Lebedev-302)
Angular grid pruning method      GridPruning ... 4 (adaptive)
Weight generation scheme         WeightScheme... mBecke (2022)
Basis function cutoff            BFCut       ... 1.0000e-11
Integration weight cutoff        WCut        ... 1.0000e-14
Partially contracted basis set               ... off
Rotationally invariant grid construction     ... off
Angular grids for H and He will be reduced by one unit

Total number of grid points                  ...   127005
Total number of batches                      ...     1999
Average number of points per batch           ...       63
Average number of grid points per atom       ...     5080

--------------------
COSX GRID GENERATION
--------------------

GRIDX 1
-------
General Integration Accuracy     IntAcc      ... 3.816
Radial Grid Type                 RadialGrid  ... OptM3 with GC (2021)
Angular Grid (max. ang.)         AngularGrid ... 1 (Lebedev-50)
Angular grid pruning method      GridPruning ... 4 (adaptive)
Weight generation scheme         WeightScheme... mBecke (2022)
Basis function cutoff            BFCut       ... 1.0000e-11
Integration weight cutoff        WCut        ... 1.0000e-14
Partially contracted basis set               ... on
Rotationally invariant grid construction     ... off
Angular grids for H and He will be reduced by one unit

Total number of grid points                  ...    18150
Total number of batches                      ...      157
Average number of points per batch           ...      115
Average number of grid points per atom       ...      726
UseSFitting                                  ... on

GRIDX 2
-------
General Integration Accuracy     IntAcc      ... 4.020
Radial Grid Type                 RadialGrid  ... OptM3 with GC (2021)
Angular Grid (max. ang.)         AngularGrid ... 2 (Lebedev-110)
Angular grid pruning method      GridPruning ... 4 (adaptive)
Weight generation scheme         WeightScheme... mBecke (2022)
Basis function cutoff            BFCut       ... 1.0000e-11
Integration weight cutoff        WCut        ... 1.0000e-14
Partially contracted basis set               ... on
Rotationally invariant grid construction     ... off
Angular grids for H and He will be reduced by one unit

Total number of grid points                  ...    35299
Total number of batches                      ...      287
Average number of points per batch           ...      122
Average number of grid points per atom       ...     1412
UseSFitting                                  ... on

GRIDX 3
-------
General Integration Accuracy     IntAcc      ... 4.338
Radial Grid Type                 RadialGrid  ... OptM3 with GC (2021)
Angular Grid (max. ang.)         AngularGrid ... 3 (Lebedev-194)
Angular grid pruning method      GridPruning ... 4 (adaptive)
Weight generation scheme         WeightScheme... mBecke (2022)
Basis function cutoff            BFCut       ... 1.0000e-11
Integration weight cutoff        WCut        ... 1.0000e-14
Partially contracted basis set               ... on
Rotationally invariant grid construction     ... off
Angular grids for H and He will be reduced by one unit

Total number of grid points                  ...    78560
Total number of batches                      ...      626
Average number of points per batch           ...      125
Average number of grid points per atom       ...     3142
UseSFitting                                  ... on
Grids setup in   1.1 sec
Initializing property integral containers    ... done (  0.0 sec)

SHARK setup successfully completed in   1.2 seconds

Maximum memory used throughout the entire STARTUP-calculation: 35.6 MB


           ************************************************************
           *        Program running with 8 parallel MPI-processes     *
           *              working on a common directory               *
           ************************************************************
-------------------------------------------------------------------------------
                                 ORCA GUESS
                   Start orbitals & Density for SCF / CASSCF
-------------------------------------------------------------------------------

------------
SCF SETTINGS
------------
Hamiltonian:
 Density Functional     Method          .... DFT(GTOs)
 Exchange Functional    Exchange        .... WB97X-D3
 Correlation Functional Correlation     .... WB97X-D3
 Gradients option       PostSCFGGA      .... off
 Hybrid DFT is turned on
   Fraction HF Exchange ScalHFX         ....  0.195728
   Scaling of DF-GGA-X  ScalDFX         ....  0.000000
   Scaling of DF-GGA-C  ScalDFC         ....  1.000000
   Scaling of DF-LDA-C  ScalLDAC        ....  1.000000
   Perturbative correction              ....  0.000000
 Long-range corrected/Screened/Range-Separated Hybrid DFT is turned on
   Amount of maximum screened exact exchange              ....  0.804272
   Range separation parameter mu (erf(mu*r12)/r12)        ....  0.250000
 RI-approximation to the Coulomb term is turned on
   Number of AuxJ basis functions       .... 887
   RIJ-COSX (HFX calculated with COS-X)).... on


General Settings:
 Integral files         IntName         .... compound_11_wb97xd3_def2svp_cpcm_water_freq
 Hartree-Fock type      HFTyp           .... RHF
 Total Charge           Charge          ....    0
 Multiplicity           Mult            ....    1
 Number of Electrons    NEL             ....  134
 Basis Dimension        Dim             ....  277
 Nuclear Repulsion      ENuc            ....   1423.8667645663 Eh

Convergence Acceleration:
 AO-DIIS                CNVDIIS         .... on
   Start iteration      DIISMaxIt       ....    12
   Startup error        DIISStart       ....  0.200000
   # of expansion vecs  DIISMaxEq       ....     5
   Bias factor          DIISBfac        ....   1.050
   Max. coefficient     DIISMaxC        ....  10.000
 MO-DIIS                CNVKDIIS        .... off
 Trust-Rad. Augm. Hess. CNVTRAH         .... auto
   Auto Start mean grad. ratio tolernc. ....  1.125000
   Auto Start start iteration           ....    50
   Auto Start num. interpolation iter.  ....    10
   Max. Number of Micro iterations      ....    24
   Max. Number of Macro iterations      .... Maxiter - #DIIS iter
   Number of Davidson start vectors     ....     2
   Converg. threshold    (grad. norm)   ....   1.000e-05
   Grad. Scal. Fac. for Micro threshold ....   0.100
   Minimum threshold for Micro iter.    ....   1.000e-02
   NR start threshold (gradient norm)   ....   1.000e-04
   Initial trust radius                 ....   0.400
   Minimum AH scaling param. (alpha)    ....   1.000
   Maximum AH scaling param. (alpha)    .... 1000.000
   Quad. conv. algorithm                .... NR
   White noise on init. David. guess    .... on
   Maximum white noise                  ....   0.010
   Pseudo random numbers                .... off
   Inactive MOs                         .... canonical
   Orbital update algorithm             .... Taylor
   Preconditioner                       .... Diag
   Full preconditioner red. dimension   ....   250
 SOSCF                 CNVSOSCF           .... on
   Start iteration     SOSCFMaxIt         ....   150
   Startup grad/error  SOSCFStart         ....  0.003300
   Hessian update      SOSCFHessUp        .... L-BFGS
   Autom. constraints  SOSCFAutoConstrain .... off
 Level Shifting         CNVShift        .... on
   Level shift para.    LevelShift      ....    0.2500
   Turn off err/grad.   ShiftErr        ....    0.0010
 Zerner damping         CNVZerner       .... off
 Static damping         CNVDamp         .... on
   Fraction old density DampFac         ....    0.7000
   Max. Damping (<1)    DampMax         ....    0.9800
   Min. Damping (>=0)   DampMin         ....    0.0000
   Turn off err/grad.   DampErr         ....    0.1000

SCF Procedure:
 Maximum # iterations   MaxIter         ....   125
 SCF integral mode      SCFMode         .... Direct
   Integral package                     .... SHARK and LIBINT hybrid scheme
 Reset frequency        DirectResetFreq ....    20
 Integral Threshold     Thresh          ....  2.500e-11 Eh
 Primitive CutOff       TCut            ....  2.500e-12 Eh

Convergence Tolerance:
 Convergence Check Mode ConvCheckMode   .... Total+1el-Energy
 Convergence forced     ConvForced      .... 0
 Energy Change          TolE            ....  1.000e-08 Eh
 1-El. energy change                    ....  1.000e-05 Eh
 Orbital Gradient       TolG            ....  1.000e-05
 Orbital Rotation angle TolX            ....  1.000e-05
 DIIS Error             TolErr          ....  5.000e-07

------------------------------
INITIAL GUESS: MODEL POTENTIAL
------------------------------
Loading Hartree-Fock densities                     ... done
Calculating cut-offs                               ... done
Initializing the effective Hamiltonian             ... done
Setting up the integral package (SHARK)            ... done
Starting the Coulomb interaction                   ... done (   0.1 sec)
Making the grid                                    ... done (   0.2 sec)
Mapping shells                                     ... done
Starting the XC term evaluation                    ... done (   0.0 sec)
  promolecular density results
     # of electrons  =    133.993752666
     EX              =   -137.547385475
     EC              =     -4.753807223
     EX+EC           =   -142.301192699
Transforming the Hamiltonian                       ... done (   0.0 sec)
Diagonalizing the Hamiltonian                      ... done (   0.0 sec)
Back transforming the eigenvectors                 ... done (   0.0 sec)
Now organizing SCF variables                       ... done
                      ------------------
                      INITIAL GUESS DONE (   0.4 sec)
                      ------------------
             **** ENERGY FILE WAS UPDATED (compound_11_wb97xd3_def2svp_cpcm_water_freq.en.tmp) ****
Finished Guess after   0.8 sec
Maximum memory used throughout the entire GUESS-calculation: 15.8 MB


           ************************************************************
           *        Program running with 8 parallel MPI-processes     *
           *              working on a common directory               *
           ************************************************************

-------------------------------------------------------------------------------------------
                                      ORCA LEAN-SCF
                              memory conserving SCF solver
-------------------------------------------------------------------------------------------

--------------------
CPCM SOLVATION MODEL
--------------------
CPCM parameters:
  Epsilon                                         ...      80.1510
  Refrac                                          ...       1.3328
  Rsolv                                           ...       1.3000
  Surface type                                    ... GAUSSIAN VDW
  Discretization scheme                           ... Constant charge density
    Threshold for H atoms                         ...       5.0000 (charges/Ang^2)
    Threshold for non-H atoms                     ...       5.0000 (charges/Ang^2)
  Epsilon function type                           ...         CPCM
Solvent:                                          ... WATER
Radii:
  Scheme                                          ... Element-dependent radii
  Radius for O  used is    3.4469 Bohr (=   1.8240 Ang.)
  Radius for C  used is    3.8550 Bohr (=   2.0400 Ang.)
  Radius for N  used is    3.5149 Bohr (=   1.8600 Ang.)
  Radius for S  used is    4.0818 Bohr (=   2.1600 Ang.)
  Radius for H  used is    2.4944 Bohr (=   1.3200 Ang.)
Calculating surface                               ...        done! (  0.0s)
Cavity surface points                             ...         2176
Cavity Volume                                     ...    1755.4705
Cavity Surface-area                               ...     909.4781
Calculating surface distance matrix               ...        done! (  0.0s)
Performing Cholesky decomposition & store         ...        done! (  0.1s)
Overall time for CPCM initialization              ...                 0.1s

----------------------------------------D-I-I-S--------------------------------------------
Iteration    Energy (Eh)           Delta-E    RMSDP     MaxDP     DIISErr   Damp  Time(sec)
-------------------------------------------------------------------------------------------
               ***  Starting incremental Fock matrix formation  ***
    1    -1495.3522209640727851     0.00e+00  6.37e-03  7.23e-02  2.21e-01  0.700   2.7
    2    -1495.4605233220163427    -1.08e-01  4.60e-03  5.66e-02  1.07e-01  0.700   1.5
                               ***Turning on AO-DIIS***
    3    -1495.5114730129694181    -5.09e-02  2.29e-03  3.34e-02  4.56e-02  0.700   1.5
    4    -1495.5423818348108398    -3.09e-02  4.88e-03  6.76e-02  2.75e-02  0.000   1.4
                              *** Initializing SOSCF ***
---------------------------------------S-O-S-C-F--------------------------------------
Iteration    Energy (Eh)           Delta-E    RMSDP     MaxDP     MaxGrad    Time(sec)
--------------------------------------------------------------------------------------
    5    -1495.6101426732984692    -6.78e-02  4.87e-04  5.30e-03  3.22e-03     1.5
               *** Restarting incremental Fock matrix formation ***
    6    -1495.6104080653312849    -2.65e-04  3.98e-04  4.58e-03  1.23e-03     2.7
    7    -1495.6104830306740041    -7.50e-05  3.13e-04  3.77e-03  7.82e-04     2.2
    8    -1495.6104997796473981    -1.67e-05  1.07e-04  1.07e-03  5.78e-04     2.1
    9    -1495.6105063999120830    -6.62e-06  3.04e-05  5.88e-04  6.79e-05     1.9
   10    -1495.6105065676551931    -1.68e-07  1.18e-05  1.45e-04  3.62e-05     1.8
   11    -1495.6105067287794554    -1.61e-07  5.79e-06  9.75e-05  1.83e-05     1.6
   12    -1495.6105067508024149    -2.20e-08  2.50e-06  4.33e-05  7.27e-06     1.4
   13    -1495.6105067521075398    -1.31e-09  9.90e-07  1.36e-05  4.04e-06     1.4
                 **** Energy Check signals convergence ****

               *****************************************************
               *                     SUCCESS                       *
               *           SCF CONVERGED AFTER  13 CYCLES          *
               *****************************************************

Recomputing exchange energy using gridx3       ... done (    4.777 sec)
Old exchange energy                            :    -41.714555528 Eh
New exchange energy                            :    -41.714532071 Eh
Exchange energy change after final integration :      0.000023457 Eh
Total energy after final integration           :  -1495.610483299 Eh
             **** ENERGY FILE WAS UPDATED (compound_11_wb97xd3_def2svp_cpcm_water_freq.en.tmp) ****

----------------
TOTAL SCF ENERGY
----------------

Total Energy       :      -1495.61048329908522 Eh          -40697.63028 eV

Components:
Nuclear Repulsion  :       1423.86676456629448 Eh           38745.38444 eV
Electronic Energy  :      -2919.44465433156984 Eh          -79442.12780 eV
One Electron Energy:      -4884.41145434886039 Eh         -132911.59277 eV
Two Electron Energy:       1964.96680001729055 Eh           53469.46496 eV
CPCM Dielectric    :         -0.03261699075637 Eh              -0.88755 eV

Virial components:
Potential Energy   :      -2983.04277050286692 Eh          -81172.72053 eV
Kinetic Energy     :       1487.43228720378193 Eh           40475.09025 eV
Virial Ratio       :          2.00549819723940

DFT components:
N(Alpha)           :       67.000129206547 electrons
N(Beta)            :       67.000129206547 electrons
N(Total)           :      134.000258413095 electrons
E(XC)              :     -102.817658244423 Eh       

CPCM Solvation Model Properties:
Surface-charge          :         -0.01550252441154
Corrected charge        :         -0.00000000000000
Outlying charge corr.   :          0.00001464746350 Eh               0.00040 eV
Free-energy (cav+disp)  :  This term is not implemented in the current solvation scheme

---------------
SCF CONVERGENCE
---------------

  Last Energy change         ...    1.3051e-09  Tolerance :   1.0000e-08
  Last MAX-Density change    ...    1.3572e-05  Tolerance :   1.0000e-07
  Last RMS-Density change    ...    9.8987e-07  Tolerance :   5.0000e-09
  Last DIIS Error            ...    3.2189e-03  Tolerance :   5.0000e-07
  Last Orbital Gradient      ...    4.0448e-06  Tolerance :   1.0000e-05
  Last Orbital Rotation      ...    1.7267e-05  Tolerance :   1.0000e-05


----------------
ORBITAL ENERGIES
----------------

  NO   OCC          E(Eh)            E(eV) 
   0   2.0000     -88.991614     -2421.5849 
   1   2.0000     -88.894255     -2418.9357 
   2   2.0000     -19.273623      -524.4619 
   3   2.0000     -19.265727      -524.2471 
   4   2.0000     -19.248640      -523.7821 
   5   2.0000     -14.539237      -395.6327 
   6   2.0000     -14.470545      -393.7635 
   7   2.0000     -14.466315      -393.6484 
   8   2.0000     -10.412555      -283.3400 
   9   2.0000     -10.412352      -283.3345 
  10   2.0000     -10.399245      -282.9778 
  11   2.0000     -10.391507      -282.7673 
  12   2.0000     -10.362578      -281.9801 
  13   2.0000     -10.357765      -281.8491 
  14   2.0000     -10.349927      -281.6358 
  15   2.0000     -10.311715      -280.5960 
  16   2.0000      -8.109327      -220.6660 
  17   2.0000      -8.010735      -217.9832 
  18   2.0000      -6.068811      -165.1407 
  19   2.0000      -6.064531      -165.0243 
  20   2.0000      -6.059771      -164.8948 
  21   2.0000      -5.971510      -162.4931 
  22   2.0000      -5.964945      -162.3144 
  23   2.0000      -5.961730      -162.2269 
  24   2.0000      -1.235822       -33.6284 
  25   2.0000      -1.193876       -32.4870 
  26   2.0000      -1.164990       -31.7010 
  27   2.0000      -1.124325       -30.5944 
  28   2.0000      -1.067791       -29.0561 
  29   2.0000      -0.982522       -26.7358 
  30   2.0000      -0.968963       -26.3668 
  31   2.0000      -0.910603       -24.7788 
  32   2.0000      -0.897849       -24.4317 
  33   2.0000      -0.836501       -22.7623 
  34   2.0000      -0.796398       -21.6711 
  35   2.0000      -0.774665       -21.0797 
  36   2.0000      -0.751189       -20.4409 
  37   2.0000      -0.743085       -20.2204 
  38   2.0000      -0.699921       -19.0458 
  39   2.0000      -0.677307       -18.4305 
  40   2.0000      -0.655168       -17.8280 
  41   2.0000      -0.643007       -17.4971 
  42   2.0000      -0.619614       -16.8606 
  43   2.0000      -0.609294       -16.5797 
  44   2.0000      -0.588811       -16.0224 
  45   2.0000      -0.578137       -15.7319 
  46   2.0000      -0.571636       -15.5550 
  47   2.0000      -0.566943       -15.4273 
  48   2.0000      -0.550769       -14.9872 
  49   2.0000      -0.541471       -14.7342 
  50   2.0000      -0.530403       -14.4330 
  51   2.0000      -0.511494       -13.9185 
  52   2.0000      -0.508656       -13.8412 
  53   2.0000      -0.489134       -13.3100 
  54   2.0000      -0.484105       -13.1732 
  55   2.0000      -0.479746       -13.0545 
  56   2.0000      -0.467328       -12.7167 
  57   2.0000      -0.456649       -12.4261 
  58   2.0000      -0.448022       -12.1913 
  59   2.0000      -0.419326       -11.4104 
  60   2.0000      -0.414585       -11.2814 
  61   2.0000      -0.412463       -11.2237 
  62   2.0000      -0.387681       -10.5493 
  63   2.0000      -0.359720        -9.7885 
  64   2.0000      -0.338427        -9.2091 
  65   2.0000      -0.317679        -8.6445 
  66   2.0000      -0.295865        -8.0509 
  67   0.0000       0.033786         0.9194 
  68   0.0000       0.053364         1.4521 
  69   0.0000       0.079479         2.1627 
  70   0.0000       0.095643         2.6026 
  71   0.0000       0.146203         3.9784 
  72   0.0000       0.153261         4.1704 
  73   0.0000       0.168793         4.5931 
  74   0.0000       0.181926         4.9504 
  75   0.0000       0.194445         5.2911 
  76   0.0000       0.197175         5.3654 
  77   0.0000       0.201362         5.4793 
*Only the first 10 virtual orbitals were printed.

                    ********************************
                    * MULLIKEN POPULATION ANALYSIS *
                    ********************************

-----------------------
MULLIKEN ATOMIC CHARGES
-----------------------
   0 O :   -0.231029
   1 C :    0.106333
   2 C :   -0.001311
   3 C :    0.081530
   4 N :   -0.179074
   5 N :   -0.104103
   6 C :   -0.005715
   7 N :   -0.109312
   8 S :    0.099142
   9 C :    0.056472
  10 S :   -0.364821
  11 C :    0.008200
  12 O :   -0.377099
  13 C :    0.277271
  14 O :   -0.419529
  15 C :    0.263503
  16 H :    0.114549
  17 H :    0.077349
  18 H :    0.071771
  19 H :    0.185208
  20 H :    0.190009
  21 H :    0.066310
  22 H :    0.057658
  23 H :    0.067830
  24 H :    0.068860
Sum of atomic charges:   -0.0000000

--------------------------------
MULLIKEN REDUCED ORBITAL CHARGES
--------------------------------
  0 O s       :     3.719718  s :     3.719718
      pz      :     1.356506  p :     4.493104
      px      :     1.475067
      py      :     1.661532
      dz2     :     0.007177  d :     0.018208
      dxz     :     0.005447
      dyz     :     0.003995
      dx2y2   :     0.000742
      dxy     :     0.000848

  1 C s       :     3.104816  s :     3.104816
      pz      :     0.869230  p :     2.693801
      px      :     0.844434
      py      :     0.980137
      dz2     :     0.023048  d :     0.095051
      dxz     :     0.022356
      dyz     :     0.031570
      dx2y2   :     0.008128
      dxy     :     0.009948

  2 C s       :     2.993592  s :     2.993592
      pz      :     0.904710  p :     2.977759
      px      :     1.051787
      py      :     1.021262
      dz2     :     0.008021  d :     0.029960
      dxz     :     0.003592
      dyz     :     0.008162
      dx2y2   :     0.003621
      dxy     :     0.006565

  3 C s       :     3.043731  s :     3.043731
      pz      :     1.019215  p :     2.822323
      px      :     0.787670
      py      :     1.015437
      dz2     :     0.010536  d :     0.052417
      dxz     :     0.008912
      dyz     :     0.009432
      dx2y2   :     0.011303
      dxy     :     0.012234

  4 N s       :     3.381888  s :     3.381888
      pz      :     1.094347  p :     3.755427
      px      :     1.252960
      py      :     1.408120
      dz2     :     0.010445  d :     0.041758
      dxz     :     0.010388
      dyz     :     0.007846
      dx2y2   :     0.006281
      dxy     :     0.006798

  5 N s       :     3.544751  s :     3.544751
      pz      :     1.295676  p :     3.522641
      px      :     1.049357
      py      :     1.177608
      dz2     :     0.005636  d :     0.036712
      dxz     :     0.010788
      dyz     :     0.008418
      dx2y2   :     0.006852
      dxy     :     0.005017

  6 C s       :     3.078656  s :     3.078656
      pz      :     0.951522  p :     2.836518
      px      :     0.946906
      py      :     0.938091
      dz2     :     0.018761  d :     0.090541
      dxz     :     0.019533
      dyz     :     0.011850
      dx2y2   :     0.022590
      dxy     :     0.017808

  7 N s       :     3.304473  s :     3.304473
      pz      :     1.114070  p :     3.789693
      px      :     1.130470
      py      :     1.545154
      dz2     :     0.004128  d :     0.015145
      dxz     :     0.002907
      dyz     :     0.001592
      dx2y2   :     0.003756
      dxy     :     0.002762

  8 S s       :     5.864266  s :     5.864266
      pz      :     3.190274  p :     9.938660
      px      :     3.268587
      py      :     3.479799
      dz2     :     0.036674  d :     0.097932
      dxz     :     0.011924
      dyz     :     0.014842
      dx2y2   :     0.015679
      dxy     :     0.018813

  9 C s       :     3.119988  s :     3.119988
      pz      :     0.890822  p :     2.750459
      px      :     0.916332
      py      :     0.943306
      dz2     :     0.024456  d :     0.073081
      dxz     :     0.014734
      dyz     :     0.013845
      dx2y2   :     0.009259
      dxy     :     0.010786

 10 S s       :     5.939983  s :     5.939983
      pz      :     3.296710  p :    10.371297
      px      :     3.630506
      py      :     3.444080
      dz2     :     0.010569  d :     0.053542
      dxz     :     0.013987
      dyz     :     0.017611
      dx2y2   :     0.005310
      dxy     :     0.006064

 11 C s       :     3.162497  s :     3.162497
      pz      :     1.005810  p :     2.761909
      px      :     0.941469
      py      :     0.814629
      dz2     :     0.013424  d :     0.067394
      dxz     :     0.007392
      dyz     :     0.015931
      dx2y2   :     0.014382
      dxy     :     0.016266

 12 O s       :     3.775181  s :     3.775181
      pz      :     1.259565  p :     4.584405
      px      :     1.790375
      py      :     1.534464
      dz2     :     0.003450  d :     0.017513
      dxz     :     0.002762
      dyz     :     0.005381
      dx2y2   :     0.003285
      dxy     :     0.002635

 13 C s       :     3.066552  s :     3.066552
      pz      :     0.797928  p :     2.555744
      px      :     0.775115
      py      :     0.982701
      dz2     :     0.020353  d :     0.100434
      dxz     :     0.021451
      dyz     :     0.019916
      dx2y2   :     0.017244
      dxy     :     0.021470

 14 O s       :     3.759554  s :     3.759554
      pz      :     1.439170  p :     4.643789
      px      :     1.526287
      py      :     1.678332
      dz2     :     0.004995  d :     0.016187
      dxz     :     0.002827
      dyz     :     0.002235
      dx2y2   :     0.002797
      dxy     :     0.003333

 15 C s       :     2.979667  s :     2.979667
      pz      :     0.726912  p :     2.699153
      px      :     0.963149
      py      :     1.009092
      dz2     :     0.018094  d :     0.057677
      dxz     :     0.012293
      dyz     :     0.012855
      dx2y2   :     0.009506
      dxy     :     0.004928

 16 H s       :     0.861231  s :     0.861231
      pz      :     0.004430  p :     0.024220
      px      :     0.009980
      py      :     0.009810

 17 H s       :     0.899999  s :     0.899999
      pz      :     0.004113  p :     0.022652
      px      :     0.013126
      py      :     0.005413

 18 H s       :     0.906148  s :     0.906148
      pz      :     0.007398  p :     0.022081
      px      :     0.002586
      py      :     0.012096

 19 H s       :     0.769606  s :     0.769606
      pz      :     0.026422  p :     0.045185
      px      :     0.007850
      py      :     0.010914

 20 H s       :     0.764119  s :     0.764119
      pz      :     0.010296  p :     0.045871
      px      :     0.024555
      py      :     0.011021

 21 H s       :     0.912404  s :     0.912404
      pz      :     0.015142  p :     0.021287
      px      :     0.003180
      py      :     0.002965

 22 H s       :     0.922483  s :     0.922483
      pz      :     0.006665  p :     0.019859
      px      :     0.002250
      py      :     0.010944

 23 H s       :     0.910013  s :     0.910013
      pz      :     0.002385  p :     0.022157
      px      :     0.004217
      py      :     0.015555

 24 H s       :     0.909369  s :     0.909369
      pz      :     0.005936  p :     0.021771
      px      :     0.009653
      py      :     0.006183



                     *******************************
                     * LOEWDIN POPULATION ANALYSIS *
                     *******************************

----------------------
LOEWDIN ATOMIC CHARGES
----------------------
   0 O :   -0.172753
   1 C :    0.073201
   2 C :   -0.057760
   3 C :    0.028199
   4 N :    0.050647
   5 N :   -0.163755
   6 C :   -0.087987
   7 N :   -0.007203
   8 S :    0.382354
   9 C :   -0.254176
  10 S :   -0.235931
  11 C :    0.053322
  12 O :   -0.156578
  13 C :    0.114871
  14 O :   -0.185574
  15 C :    0.083917
  16 H :    0.074291
  17 H :    0.053261
  18 H :    0.039572
  19 H :    0.111757
  20 H :    0.110819
  21 H :    0.041374
  22 H :    0.033782
  23 H :    0.035292
  24 H :    0.035060

-------------------------------
LOEWDIN REDUCED ORBITAL CHARGES
-------------------------------
  0 O s       :     3.537976  s :     3.537976
      pz      :     1.461487  p :     4.603757
      px      :     1.484174
      py      :     1.658096
      dz2     :     0.012746  d :     0.031019
      dxz     :     0.009365
      dyz     :     0.006575
      dx2y2   :     0.001183
      dxy     :     0.001150

  1 C s       :     2.896946  s :     2.896946
      pz      :     0.989011  p :     2.813108
      px      :     0.862462
      py      :     0.961636
      dz2     :     0.051508  d :     0.216744
      dxz     :     0.051356
      dyz     :     0.074873
      dx2y2   :     0.017696
      dxy     :     0.021312

  2 C s       :     2.842128  s :     2.842128
      pz      :     0.999691  p :     3.134564
      px      :     1.084851
      py      :     1.050022
      dz2     :     0.023074  d :     0.081067
      dxz     :     0.008785
      dyz     :     0.021949
      dx2y2   :     0.009627
      dxy     :     0.017632

  3 C s       :     2.841764  s :     2.841764
      pz      :     1.044218  p :     3.003704
      px      :     0.903527
      py      :     1.055959
      dz2     :     0.027487  d :     0.126334
      dxz     :     0.019241
      dyz     :     0.021640
      dx2y2   :     0.026796
      dxy     :     0.031170

  4 N s       :     3.063915  s :     3.063915
      pz      :     1.190009  p :     3.791910
      px      :     1.230214
      py      :     1.371687
      dz2     :     0.025328  d :     0.093528
      dxz     :     0.025724
      dyz     :     0.017380
      dx2y2   :     0.012429
      dxy     :     0.012666

  5 N s       :     3.252038  s :     3.252038
      pz      :     1.432997  p :     3.834910
      px      :     1.171796
      py      :     1.230117
      dz2     :     0.009312  d :     0.076807
      dxz     :     0.024703
      dyz     :     0.015266
      dx2y2   :     0.015539
      dxy     :     0.011987

  6 C s       :     2.891182  s :     2.891182
      pz      :     1.014888  p :     3.000112
      px      :     1.013026
      py      :     0.972198
      dz2     :     0.040658  d :     0.196694
      dxz     :     0.046568
      dyz     :     0.024987
      dx2y2   :     0.045784
      dxy     :     0.038697

  7 N s       :     3.030528  s :     3.030528
      pz      :     1.207623  p :     3.935189
      px      :     1.203795
      py      :     1.523771
      dz2     :     0.012508  d :     0.041486
      dxz     :     0.009544
      dyz     :     0.004363
      dx2y2   :     0.008200
      dxy     :     0.006872

  8 S s       :     5.528540  s :     5.528540
      pz      :     3.212295  p :     9.964783
      px      :     3.294154
      py      :     3.458334
      dz2     :     0.048445  d :     0.124324
      dxz     :     0.014047
      dyz     :     0.018281
      dx2y2   :     0.018902
      dxy     :     0.024650

  9 C s       :     2.979762  s :     2.979762
      pz      :     1.057543  p :     3.112979
      px      :     1.034088
      py      :     1.021349
      dz2     :     0.057227  d :     0.161435
      dxz     :     0.034590
      dyz     :     0.029429
      dx2y2   :     0.018161
      dxy     :     0.022028

 10 S s       :     5.663874  s :     5.663874
      pz      :     3.372068  p :    10.496089
      px      :     3.648736
      py      :     3.475285
      dz2     :     0.013876  d :     0.075968
      dxz     :     0.020683
      dyz     :     0.026371
      dx2y2   :     0.005986
      dxy     :     0.009052

 11 C s       :     2.859176  s :     2.859176
      pz      :     1.014600  p :     2.934126
      px      :     1.026133
      py      :     0.893393
      dz2     :     0.032535  d :     0.153375
      dxz     :     0.014785
      dyz     :     0.034390
      dx2y2   :     0.032041
      dxy     :     0.039624

 12 O s       :     3.471694  s :     3.471694
      pz      :     1.303605  p :     4.653588
      px      :     1.778035
      py      :     1.571948
      dz2     :     0.007197  d :     0.031296
      dxz     :     0.005498
      dyz     :     0.010394
      dx2y2   :     0.004815
      dxy     :     0.003392

 13 C s       :     2.864114  s :     2.864114
      pz      :     0.904152  p :     2.801273
      px      :     0.884515
      py      :     1.012606
      dz2     :     0.042158  d :     0.219743
      dxz     :     0.045701
      dyz     :     0.045924
      dx2y2   :     0.035433
      dxy     :     0.050527

 14 O s       :     3.471187  s :     3.471187
      pz      :     1.454558  p :     4.685407
      px      :     1.551913
      py      :     1.678935
      dz2     :     0.009536  d :     0.028980
      dxz     :     0.004546
      dyz     :     0.004020
      dx2y2   :     0.004716
      dxy     :     0.006162

 15 C s       :     2.852401  s :     2.852401
      pz      :     0.827927  p :     2.929257
      px      :     1.045619
      py      :     1.055711
      dz2     :     0.040784  d :     0.134425
      dxz     :     0.029172
      dyz     :     0.026997
      dx2y2   :     0.026292
      dxy     :     0.011179

 16 H s       :     0.855523  s :     0.855523
      pz      :     0.013878  p :     0.070186
      px      :     0.027775
      py      :     0.028533

 17 H s       :     0.877776  s :     0.877776
      pz      :     0.013989  p :     0.068963
      px      :     0.036615
      py      :     0.018359

 18 H s       :     0.887345  s :     0.887345
      pz      :     0.025581  p :     0.073084
      px      :     0.010588
      py      :     0.036915

 19 H s       :     0.764394  s :     0.764394
      pz      :     0.070569  p :     0.123848
      px      :     0.018551
      py      :     0.034728

 20 H s       :     0.764379  s :     0.764379
      pz      :     0.025163  p :     0.124802
      px      :     0.064868
      py      :     0.034772

 21 H s       :     0.890938  s :     0.890938
      pz      :     0.043941  p :     0.067688
      px      :     0.012342
      py      :     0.011405

 22 H s       :     0.901436  s :     0.901436
      pz      :     0.021034  p :     0.064782
      px      :     0.009008
      py      :     0.034739

 23 H s       :     0.898323  s :     0.898323
      pz      :     0.008088  p :     0.066386
      px      :     0.013269
      py      :     0.045028

 24 H s       :     0.898974  s :     0.898974
      pz      :     0.018803  p :     0.065966
      px      :     0.029401
      py      :     0.017762



                      *****************************
                      * MAYER POPULATION ANALYSIS *
                      *****************************

  NA   - Mulliken gross atomic population
  ZA   - Total nuclear charge
  QA   - Mulliken gross atomic charge
  VA   - Mayer's total valence
  BVA  - Mayer's bonded valence
  FA   - Mayer's free valence

  ATOM       NA         ZA         QA         VA         BVA        FA
  0 O      8.2310     8.0000    -0.2310     2.2626     2.2626     0.0000
  1 C      5.8937     6.0000     0.1063     4.1569     4.1569    -0.0000
  2 C      6.0013     6.0000    -0.0013     3.8844     3.8844    -0.0000
  3 C      5.9185     6.0000     0.0815     3.8762     3.8762    -0.0000
  4 N      7.1791     7.0000    -0.1791     3.3692     3.3692     0.0000
  5 N      7.1041     7.0000    -0.1041     2.8892     2.8892     0.0000
  6 C      6.0057     6.0000    -0.0057     4.1698     4.1698    -0.0000
  7 N      7.1093     7.0000    -0.1093     3.2996     3.2996     0.0000
  8 S     15.9009    16.0000     0.0991     2.3658     2.3658     0.0000
  9 C      5.9435     6.0000     0.0565     3.8249     3.8249     0.0000
 10 S     16.3648    16.0000    -0.3648     1.7895     1.7895    -0.0000
 11 C      5.9918     6.0000     0.0082     3.9863     3.9863    -0.0000
 12 O      8.3771     8.0000    -0.3771     2.0347     2.0347    -0.0000
 13 C      5.7227     6.0000     0.2773     3.8864     3.8864    -0.0000
 14 O      8.4195     8.0000    -0.4195     2.0369     2.0369    -0.0000
 15 C      5.7365     6.0000     0.2635     3.8975     3.8975    -0.0000
 16 H      0.8855     1.0000     0.1145     0.9902     0.9902     0.0000
 17 H      0.9227     1.0000     0.0773     1.0162     1.0162    -0.0000
 18 H      0.9282     1.0000     0.0718     1.0250     1.0250    -0.0000
 19 H      0.8148     1.0000     0.1852     0.9886     0.9886    -0.0000
 20 H      0.8100     1.0000     0.1900     0.9751     0.9751     0.0000
 21 H      0.9337     1.0000     0.0663     1.0072     1.0072    -0.0000
 22 H      0.9423     1.0000     0.0577     1.0070     1.0070    -0.0000
 23 H      0.9322     1.0000     0.0678     0.9870     0.9870    -0.0000
 24 H      0.9311     1.0000     0.0689     0.9820     0.9820    -0.0000

  Mayer bond orders larger than 0.100000
B(  0-O ,  1-C ) :   2.1731 B(  1-C ,  2-C ) :   0.9717 B(  1-C , 13-C ) :   0.8969 
B(  2-C ,  3-C ) :   1.0437 B(  2-C , 16-H ) :   0.9074 B(  2-C , 17-H ) :   0.9333 
B(  3-C ,  4-N ) :   0.9064 B(  3-C , 11-C ) :   0.9676 B(  3-C , 18-H ) :   0.9088 
B(  4-N ,  5-N ) :   1.0312 B(  4-N ,  9-C ) :   1.2620 B(  4-N , 10-S ) :   0.1009 
B(  5-N ,  6-C ) :   1.6344 B(  6-C ,  7-N ) :   1.3300 B(  6-C ,  8-S ) :   1.0684 
B(  7-N , 19-H ) :   0.9319 B(  7-N , 20-H ) :   0.9215 B(  8-S ,  9-C ) :   1.0679 
B(  9-C , 10-S ) :   1.4559 B( 11-C , 12-O ) :   0.9437 B( 11-C , 15-C ) :   1.0472 
B( 11-C , 21-H ) :   0.9315 B( 12-O , 13-C ) :   1.0023 B( 13-C , 14-O ) :   0.9992 
B( 13-C , 22-H ) :   0.9392 B( 14-O , 15-C ) :   0.9364 B( 15-C , 23-H ) :   0.9506 
B( 15-C , 24-H ) :   0.9475 

-------
TIMINGS
-------

Total SCF time: 0 days 0 hours 0 min 30 sec 

Total time                  ....      30.165 sec
Sum of individual times     ....      28.953 sec  ( 96.0%)

SCF preparation             ....       0.550 sec  (  1.8%)
Fock matrix formation       ....      28.046 sec  ( 93.0%)
  Startup                   ....       0.005 sec  (  0.0% of F)
  Split-RI-J                ....       1.389 sec  (  5.0% of F)
  Chain of spheres X        ....      22.923 sec  ( 81.7% of F)
  XC integration            ....       2.544 sec  (  9.1% of F)
    XC Preparation          ....       0.000 sec  (  0.0% of XC)
    Basis function eval.    ....       0.832 sec  ( 32.7% of XC)
    Density eval.           ....       0.536 sec  ( 21.1% of XC)
    XC-Functional eval.     ....       0.158 sec  (  6.2% of XC)
    XC-Potential eval.      ....       0.449 sec  ( 17.7% of XC)
  CPCM terms                ....       2.184 sec  (  7.8% of F)
Diagonalization             ....       0.000 sec  (  0.0%)
Density matrix formation    ....       0.038 sec  (  0.1%)
Total Energy calculation    ....       0.032 sec  (  0.1%)
Population analysis         ....       0.019 sec  (  0.1%)
Orbital Transformation      ....       0.027 sec  (  0.1%)
Orbital Orthonormalization  ....       0.000 sec  (  0.0%)
DIIS solution               ....       0.112 sec  (  0.4%)
SOSCF solution              ....       0.128 sec  (  0.4%)
Finished LeanSCF after  30.3 sec

Maximum memory used throughout the entire LEANSCF-calculation: 27.7 MB


           ************************************************************
           *        Program running with 8 parallel MPI-processes     *
           *              working on a common directory               *
           ************************************************************

------------------------------------------------------------------------------
                         ORCA PROPERTY INTEGRAL CALCULATIONS
------------------------------------------------------------------------------

GBWName                                   ... compound_11_wb97xd3_def2svp_cpcm_water_freq.gbw
Number of atoms                           ...     25
Number of basis functions                 ...    277
Max core memory                           ...   3000 MB

Dipole integrals                          ... YES
Quadrupole integrals                      ...  NO
Linear momentum integrals                 ...  NO
Angular momentum integrals                ...  NO
Higher moments length integrals           ...  NO
Higher moments velocity integrals         ...  NO
Kinetic energy integrals                  ...  NO
GIAO right hand sides                     ...  NO
GIAO dipole derivative integrals          ...  NO
SOC integrals                             ...  NO
EPR diamagnetic integrals (GIAO)          ...  NO
EPR gauge integrals                       ...  NO
Field gradient integrals                  ...  NO (   0 nuclei)
Spin-dipole/Fermi contact integrals       ...  NO (   0 nuclei)
Contact density integrals                 ...  NO (   0 nuclei)
Nucleus-orbit integrals                   ...  NO (   0 nuclei)
Geometric perturbations                   ... YES (  25 nuclei)

Choice of electric origin   ... Center of mass
Position of electric origin ... (  0.7263, -0.0155, -0.8178) 
Choice of magnetic origin   ... GIAO
Position of magnetic origin ... (  0.0000,  0.0000,  0.0000) 

Calculating integrals                     ... Electric Dipole (Length)     done (  0.0 sec)
Calculating integrals                     ... Geometrical perturbation right hand sides

-----------------------
GEOMETRIC PERTURBATIONS (25 nuclei)
-----------------------

MaxCore                            ...   3000 MB
Number of batches                  ...      1

BATCH   0: Atoms    0 -   24 ( 75 perturbations)
   => H(core) and overlap derivative integrals     ... done (     0.1 sec)
   => Making and storing internal U-coefficients   ... done (     0.0 sec)
   => RI-J derivative integrals                    ... done (     2.3 sec)
   => RI-J response operators                      ... done (     0.4 sec)
   => Chain of spheres derivative integrals        ... done (     7.6 sec)
   => Chain of spheres response operator           ... done (     9.8 sec)
   => XC derivative integrals                      ... done (    19.3 sec)
   => XC response operators                        ... done (     5.4 sec)
   => CPCM derivative integrals                    ... done (     5.9 sec)
   => CPCM response operators                      ... done (    10.6 sec)
   => Completing and storing right hand sides      ... done (     0.0 sec)
   => Total time for right hand sides =  56.6 sec

  geometrical perturbations done ( 56.6 sec)

Property integrals calculated in  56.6 sec

Maximum memory used throughout the entire PROPINT-calculation: 390.6 MB


-------------------------------------------------------------------------------
                          DFT DISPERSION CORRECTION                            
                                                                               
                              DFTD3 V3.1  Rev 1                                
                              USING zero damping                               
-------------------------------------------------------------------------------
The omegaB97X-D3 functional is recognized. Fit by Chai et al.
Active option DFTDOPT                   ...         3   

molecular C6(AA) [au] = 9333.125922 


            DFT-D V3
 parameters
 s6 scaling factor         :     1.0000 
 rs6 scaling factor        :     1.2810 
 s8 scaling factor         :     1.0000 
 rs8 scaling factor        :     1.0940 
 Damping factor alpha6     :    14.0000 
 Damping factor alpha8     :    16.0000 
 ad hoc parameters k1-k3   :    16.0000     1.3333    -4.0000 

 Edisp/kcal,au: -7.947869050156  -0.012665734193 
 E6   /kcal   :  -3.417243865 
 E8   /kcal   :  -4.530625185 
 % E8         :  57.004275691 

-------------------------   ----------------
Dispersion correction           -0.012665734
-------------------------   ----------------


-------------------------   --------------------
FINAL SINGLE POINT ENERGY     -1495.623149033279
-------------------------   --------------------



           ************************************************************
           *        Program running with 8 parallel MPI-processes     *
           *              working on a common directory               *
           ************************************************************
------------------------------------------------------------------------------
                            ORCA SCF RESPONSE CALCULATION
------------------------------------------------------------------------------

GBWName                                 ... compound_11_wb97xd3_def2svp_cpcm_water_freq.gbw
Number of atoms                         ...     25
Number of basis functions               ...    277
Max core memory                         ...   3000 MB

Electric field perturbation             ...  NO
Quadrupolar field perturbation          ...  NO
Magnetic field perturbation (no GIAO)   ...  NO
Magnetic field perturbation (with GIAO) ...  NO
Linear momentum (velocity) perturbation ...  NO
Spin-orbit coupling perturbation        ...  NO
Choice of electric origin               ... Center of mass
Position of electric origin             ...     0.726308    -0.015522    -0.817824
Choice of magnetic origin               ... GIAO
Position of magnetic origin             ...     0.000000     0.000000     0.000000
Nuclear geometric perturbations         ... YES (  75 perturbations)
Nucleus-orbit perturbations             ...  NO (   0 perturbations)
Spin-dipole/Fermi contact perturbations ...  NO (   0 perturbations)

Total number of real perturbations      ...     75
Total number of imaginary perturbations ...      0
Total number of triplet perturbations   ...      0
Total number of SOC perturbations       ...      0

Using XC Grid                  ... (compound_11_wb97xd3_def2svp_cpcm_water_freq.grid_cpscf.tmp) 
Recalculating density on grid  ... (compound_11_wb97xd3_def2svp_cpcm_water_freq.grho_cpscf0.tmp) done
Calculating the xc-kernel      ... (compound_11_wb97xd3_def2svp_cpcm_water_freq.fxc_cpscf0.tmp) done

                                **********************
                                * REAL PERTURBATIONS *
                                **********************



-------------------
SHARK CP-SCF DRIVER
-------------------

Dimension of the orbital basis          ...    277
Dimension of the CPSCF-problem          ...  14070
Number of operators                     ...      1
Max. number of iterations               ...    128
Convergence Tolerance                   ... 1.0e-04
Number of perturbations                 ...     75
Perturbation type                       ... REAL

----------------------------
POPLE LINEAR EQUATION SOLVER
----------------------------

  ITERATION   0:   ||err||_max =   3.3496e-01 (   8.1 sec   0/ 75 done)
  ITERATION   1:   ||err||_max =   6.3538e-02 (   8.5 sec   0/ 75 done)
  ITERATION   2:   ||err||_max =   3.2649e-02 (   8.3 sec   0/ 75 done)
  ITERATION   3:   ||err||_max =   1.3274e-02 (   8.3 sec   0/ 75 done)
  ITERATION   4:   ||err||_max =   4.3992e-03 (   8.4 sec   0/ 75 done)
  ITERATION   5:   ||err||_max =   2.1040e-03 (   8.7 sec   3/ 75 done)
  ITERATION   6:   ||err||_max =   6.9722e-04 (   8.1 sec  19/ 75 done)
  ITERATION   7:   ||err||_max =   3.3035e-04 (   6.8 sec  35/ 75 done)
  ITERATION   8:   ||err||_max =   9.8744e-05 (   5.3 sec  75/ 75 done)

CP-SCF equations solved in  70.6 sec
Response densities calculated in   0.0 sec

Maximum memory used throughout the entire SCFRESP-calculation: 389.0 MB


           ************************************************************
           *        Program running with 8 parallel MPI-processes     *
           *              working on a common directory               *
           ************************************************************

------------------------------------------------------------------------------
                              ORCA PROPERTY CALCULATIONS
------------------------------------------------------------------------------

GBWName                                 ... compound_11_wb97xd3_def2svp_cpcm_water_freq.gbw
Number of atoms                         ...     25
Number of basis functions               ...    277
Max core memory                         ...   3000 MB

Electric properties:
Dipole moment                           ... YES
Quadrupole moment                       ...  NO
Static polarizability (Dipole/Dipole)   ...  NO
Static polarizability (Dipole/Quad.)    ...  NO
Static polarizability (Quad./Quad.)     ...  NO
Static polarizability (Velocity)        ...  NO
Static hyperpolarizability              ...  NO

Atomic electric properties:
Dipole moment                           ...  NO
Quadrupole moment                       ...  NO
Static polarizability                   ...  NO

Choice of electric origin               ... Center of mass
Position of electric origin             ...     0.726308    -0.015522    -0.817824

General magnetic properties:
Magnetizability                         ...  NO

EPR properties:
g-Tensor (aka g-matrix)                 ...  NO
Zero-Field splitting spin-orbit         ...  NO
Zero-field splitting spin-spin          ...  NO
Hyperfine couplings                     ...  NO (   0 nuclei)
Quadrupole couplings                    ...  NO (   0 nuclei)
Contact density                         ...  NO (   0 nuclei)

NMR properties:
Chemical shifts                         ...  NO (   0 nuclei)
[...]
 20:    420.07   0.000081    0.41  0.000060  (-0.007487 -0.001350 -0.001588)
 21:    436.95   0.005150   26.02  0.003678  (-0.031157  0.049866  0.014849)
 22:    454.95   0.004266   21.56  0.002926  ( 0.030718 -0.003800  0.044366)
 23:    491.92   0.007147   36.12  0.004534  (-0.038479  0.054675  0.007978)
 24:    521.21   0.000946    4.78  0.000566  (-0.001684  0.022953  0.006048)
 25:    575.43   0.005719   28.90  0.003102  ( 0.052375 -0.001251 -0.018894)
 26:    621.35   0.001868    9.44  0.000938  ( 0.022553 -0.018190  0.009944)
 27:    629.10   0.001668    8.43  0.000827  (-0.001603  0.028705 -0.000921)
 28:    672.74   0.001412    7.14  0.000655  (-0.023322 -0.009484  0.004589)
 29:    699.30   0.004421   22.34  0.001973  ( 0.041545  0.012720 -0.009213)
 30:    708.02   0.002200   11.12  0.000970  (-0.025861 -0.007528 -0.015623)
 31:    764.09   0.000441    2.23  0.000180  ( 0.009683 -0.007805 -0.005052)
 32:    791.13   0.001645    8.31  0.000649  (-0.004152  0.023957  0.007588)
 33:    823.95   0.000579    2.93  0.000219  ( 0.001178 -0.013478 -0.006035)
 34:    855.29   0.002503   12.65  0.000913  ( 0.025067  0.016871  0.000561)
 35:    921.66   0.020185  102.01  0.006834  ( 0.050004  0.065488 -0.006738)
 36:    935.69   0.009836   49.71  0.003281  ( 0.048519 -0.026297  0.015327)
 37:    964.11   0.015491   78.29  0.005014  (-0.049674  0.020490  0.046117)
 38:    995.47   0.010809   54.63  0.003389  (-0.045472 -0.036202  0.003190)
 39:   1021.52   0.003515   17.76  0.001074  (-0.004540 -0.003037 -0.032309)
 40:   1030.60   0.001664    8.41  0.000504  ( 0.010464 -0.015908  0.011891)
 41:   1048.21   0.008232   41.60  0.002451  (-0.036217 -0.024517 -0.023196)
 42:   1087.77   0.017801   89.96  0.005107  ( 0.026254 -0.022135 -0.062671)
 43:   1091.92   0.035050  177.13  0.010017  ( 0.050295  0.050625  0.070176)
 44:   1131.10   0.005598   28.29  0.001544  (-0.027882  0.004272  0.027364)
 45:   1151.50   0.046215  233.55  0.012525  ( 0.060202  0.063766  0.069529)
 46:   1185.96   0.055181  278.86  0.014520  (-0.029678 -0.035552 -0.111244)
 47:   1197.67   0.002975   15.04  0.000775  ( 0.001495 -0.001231  0.027776)
 48:   1219.48   0.001354    6.84  0.000347  ( 0.018267 -0.003562 -0.000384)
 49:   1262.82   0.010629   53.71  0.002627  (-0.020709  0.033747  0.032541)
 50:   1285.62   0.000734    3.71  0.000178  (-0.005625  0.004521  0.011232)
 51:   1307.19   0.005023   25.39  0.001199  (-0.034058  0.004389 -0.004466)
 52:   1327.32   0.006224   31.45  0.001463  (-0.018382 -0.012808 -0.031005)
 53:   1342.31   0.010398   52.55  0.002417  ( 0.018404  0.011121 -0.044215)
 54:   1349.58   0.010227   51.68  0.002365  (-0.039965 -0.008841  0.026258)
 55:   1360.41   0.018998   96.01  0.004358  ( 0.011988 -0.031953 -0.056509)
 56:   1369.97   0.008162   41.25  0.001859  ( 0.000744 -0.004954 -0.042828)
 57:   1390.71   0.014044   70.97  0.003151  (-0.028324 -0.008613 -0.047697)
 58:   1399.21   0.002401   12.13  0.000536  ( 0.019997  0.000402 -0.011642)
 59:   1404.64   0.051033  257.90  0.011338  (-0.049369 -0.065501 -0.067898)
 60:   1414.84   0.005250   26.53  0.001158  (-0.003749  0.030402 -0.014818)
 61:   1472.24   0.086676  438.03  0.018372  ( 0.035344  0.062743  0.114832)
 62:   1504.19   0.000953    4.82  0.000198  (-0.010327 -0.006884  0.006607)
 63:   1595.39   0.014264   72.09  0.002790  (-0.029238 -0.014732 -0.041452)
 64:   1707.46   0.138396  699.40  0.025294  ( 0.131355  0.082804  0.034398)
 65:   1886.29   0.074176  374.86  0.012272  (-0.032485 -0.021886 -0.103621)
 66:   3094.63   0.007954   40.20  0.000802  (-0.020358 -0.011045 -0.016300)
 67:   3095.64   0.000694    3.51  0.000070  ( 0.001057  0.003082  0.007705)
 68:   3143.12   0.001168    5.90  0.000116  (-0.006424  0.001183  0.008562)
 69:   3153.22   0.007776   39.30  0.000770  (-0.002582  0.018137  0.020831)
 70:   3160.71   0.003076   15.54  0.000304  ( 0.008003 -0.014552  0.005277)
 71:   3167.02   0.001683    8.51  0.000166  (-0.005628  0.008227 -0.008154)
 72:   3181.87   0.000261    1.32  0.000026  (-0.002508  0.004389  0.000249)
 73:   3615.77   0.049846  251.90  0.004302  ( 0.046449  0.025134  0.038894)
 74:   3739.20   0.032932  166.43  0.002748  ( 0.037984  0.001796 -0.036089)

* The epsilon (eps) is given for a Dirac delta lineshape.
** The dipole moment derivative (T) already includes vibrational overlap.

The first frequency considered to be a vibration is 6
The total number of vibrations considered is 69


--------------------------
THERMOCHEMISTRY AT 298.15K
--------------------------

Temperature         ...   298.15 K
Pressure            ...     1.00 atm
Total Mass          ...   259.30 AMU
Quasi RRHO          ...     True
Cut-Off Frequency   ...     1.00 cm^-1

Throughout the following assumptions are being made:
  (1) The electronic state is orbitally nondegenerate
  (2) There are no thermally accessible electronically excited states
  (3) Hindered rotations indicated by low frequency modes are not
      treated as such but are treated as vibrations and this may
      cause some error
  (4) All equations used are the standard statistical mechanics
      equations for an ideal gas
  (5) All vibrations are strictly harmonic

freq.      39.29  E(vib)   ...       0.54 
freq.      62.28  E(vib)   ...       0.51 
freq.      68.14  E(vib)   ...       0.50 
freq.     111.50  E(vib)   ...       0.45 
freq.     128.07  E(vib)   ...       0.43 
freq.     176.46  E(vib)   ...       0.38 
freq.     203.26  E(vib)   ...       0.35 
freq.     247.62  E(vib)   ...       0.31 
freq.     257.45  E(vib)   ...       0.30 
freq.     292.15  E(vib)   ...       0.27 
freq.     316.97  E(vib)   ...       0.25 
freq.     345.13  E(vib)   ...       0.23 
freq.     376.26  E(vib)   ...       0.21 
freq.     413.22  E(vib)   ...       0.19 
freq.     420.07  E(vib)   ...       0.18 
freq.     436.95  E(vib)   ...       0.17 
freq.     454.95  E(vib)   ...       0.16 
freq.     491.92  E(vib)   ...       0.14 
freq.     521.21  E(vib)   ...       0.13 
freq.     575.43  E(vib)   ...       0.11 
freq.     621.35  E(vib)   ...       0.09 
freq.     629.10  E(vib)   ...       0.09 
freq.     672.74  E(vib)   ...       0.08 
freq.     699.30  E(vib)   ...       0.07 
freq.     708.02  E(vib)   ...       0.07 
freq.     764.09  E(vib)   ...       0.06 
freq.     791.13  E(vib)   ...       0.05 
freq.     823.95  E(vib)   ...       0.05 
freq.     855.29  E(vib)   ...       0.04 
freq.     921.66  E(vib)   ...       0.03 
freq.     935.69  E(vib)   ...       0.03 
freq.     964.11  E(vib)   ...       0.03 
freq.     995.47  E(vib)   ...       0.02 
freq.    1021.52  E(vib)   ...       0.02 
freq.    1030.60  E(vib)   ...       0.02 
freq.    1048.21  E(vib)   ...       0.02 
freq.    1087.77  E(vib)   ...       0.02 
freq.    1091.92  E(vib)   ...       0.02 
freq.    1131.10  E(vib)   ...       0.01 
freq.    1151.50  E(vib)   ...       0.01 
freq.    1185.96  E(vib)   ...       0.01 
freq.    1197.67  E(vib)   ...       0.01 
freq.    1219.48  E(vib)   ...       0.01 
freq.    1262.82  E(vib)   ...       0.01 
freq.    1285.62  E(vib)   ...       0.01 
freq.    1307.19  E(vib)   ...       0.01 
freq.    1327.32  E(vib)   ...       0.01 
freq.    1342.31  E(vib)   ...       0.01 
freq.    1349.58  E(vib)   ...       0.01 
freq.    1360.41  E(vib)   ...       0.01 
freq.    1369.97  E(vib)   ...       0.01 
freq.    1390.71  E(vib)   ...       0.00 
freq.    1399.21  E(vib)   ...       0.00 
freq.    1404.64  E(vib)   ...       0.00 
freq.    1414.84  E(vib)   ...       0.00 
freq.    1472.24  E(vib)   ...       0.00 
freq.    1504.19  E(vib)   ...       0.00 
freq.    1595.39  E(vib)   ...       0.00 
freq.    1707.46  E(vib)   ...       0.00 
freq.    1886.29  E(vib)   ...       0.00 
freq.    3094.63  E(vib)   ...       0.00 
freq.    3095.64  E(vib)   ...       0.00 
freq.    3143.12  E(vib)   ...       0.00 
freq.    3153.22  E(vib)   ...       0.00 
freq.    3160.71  E(vib)   ...       0.00 
freq.    3167.02  E(vib)   ...       0.00 
freq.    3181.87  E(vib)   ...       0.00 
freq.    3615.77  E(vib)   ...       0.00 
freq.    3739.20  E(vib)   ...       0.00 

------------
INNER ENERGY
------------

The inner energy is: U= E(el) + E(ZPE) + E(vib) + E(rot) + E(trans)
    E(el)   - is the total energy from the electronic structure calculation
              = E(kin-el) + E(nuc-el) + E(el-el) + E(nuc-nuc)
    E(ZPE)  - the the zero temperature vibrational energy from the frequency calculation
    E(vib)  - the the finite temperature correction to E(ZPE) due to population
              of excited vibrational states
    E(rot)  - is the rotational thermal energy
    E(trans)- is the translational thermal energy

Summary of contributions to the inner energy U:
Electronic energy                ...  -1495.62314903 Eh
Zero point energy                ...      0.18502671 Eh     116.11 kcal/mol
Thermal vibrational correction   ...      0.01073599 Eh       6.74 kcal/mol
Thermal rotational correction    ...      0.00141627 Eh       0.89 kcal/mol
Thermal translational correction ...      0.00141627 Eh       0.89 kcal/mol
-----------------------------------------------------------------------
Total thermal energy                  -1495.42455380 Eh


Summary of corrections to the electronic energy:
(perhaps to be used in another calculation)
Total thermal correction                  0.01356853 Eh       8.51 kcal/mol
Non-thermal (ZPE) correction              0.18502671 Eh     116.11 kcal/mol
-----------------------------------------------------------------------
Total correction                          0.19859524 Eh     124.62 kcal/mol


--------
ENTHALPY
--------

The enthalpy is H = U + kB*T
                kB is Boltzmann's constant
Total thermal energy              ...  -1495.42455380 Eh 
Thermal Enthalpy correction       ...      0.00094421 Eh       0.59 kcal/mol
-----------------------------------------------------------------------
Total Enthalpy                    ...  -1495.42360959 Eh


Note: Only C1 symmetry has been detected, increase convergence thresholds 
      if your molecule has a higher symmetry. Symmetry factor of 1.0 is   
      used for the rotational entropy correction. 
 

Note: Rotational entropy computed according to Herzberg 
Infrared and Raman Spectra, Chapter V,1, Van Nostrand Reinhold, 1945 
Point Group:  C1, Symmetry Number:   1  
Rotational constants in cm-1:     0.023777     0.011807     0.008932 

Vibrational entropy computed according to the QRRHO of S. Grimme
Chem.Eur.J. 2012 18 9955 using a reference frequency of 100.0 cm-1


-------
ENTROPY
-------

The entropy contributions are T*S = T*(S(el)+S(vib)+S(rot)+S(trans))
     S(el)   - electronic entropy
     S(vib)  - vibrational entropy
     S(rot)  - rotational entropy
     S(trans)- translational entropy
The entropies will be listed as multiplied by the temperature to get
units of energy

Electronic entropy                ...      0.00000000 Eh      0.00 kcal/mol
Vibrational entropy               ...      0.01839266 Eh     11.54 kcal/mol
Rotational entropy                ...      0.01559896 Eh      9.79 kcal/mol
Translational entropy             ...      0.02022068 Eh     12.69 kcal/mol
-----------------------------------------------------------------------
Final entropy term                ...      0.05421230 Eh     34.02 kcal/mol

In case the symmetry of your molecule has not been determined correctly
or in case you have a reason to use a different symmetry number we print 
out the resulting rotational entropy values for sn=1,12:

 non-linear molecules -----------------------------------
|  sn= 1 | S(rot)=       0.01559896 Eh      9.79 kcal/mol|
|  sn= 2 | S(rot)=       0.01494450 Eh      9.38 kcal/mol|
|  sn= 3 | S(rot)=       0.01456167 Eh      9.14 kcal/mol|
|  sn= 4 | S(rot)=       0.01429005 Eh      8.97 kcal/mol|
|  sn= 5 | S(rot)=       0.01407936 Eh      8.83 kcal/mol|
|  sn= 6 | S(rot)=       0.01390721 Eh      8.73 kcal/mol|
|  sn= 7 | S(rot)=       0.01376167 Eh      8.64 kcal/mol|
|  sn= 8 | S(rot)=       0.01363559 Eh      8.56 kcal/mol|
|  sn= 9 | S(rot)=       0.01352438 Eh      8.49 kcal/mol|
|  sn=10 | S(rot)=       0.01342490 Eh      8.42 kcal/mol|
|  sn=11 | S(rot)=       0.01333491 Eh      8.37 kcal/mol|
|  sn=12 | S(rot)=       0.01325276 Eh      8.32 kcal/mol|
 linear molecules ---------------------------------------
|  Dinfh | S(rot)=       0.00978051 Eh      6.14 kcal/mol|
|  Cinfv | S(rot)=       0.01043497 Eh      6.55 kcal/mol|
 --------------------------------------------------------


-------------------
GIBBS FREE ENERGY
-------------------

The Gibbs free energy is G = H - T*S

Total enthalpy                    ...  -1495.42360959 Eh 
Total entropy correction          ...     -0.05421230 Eh    -34.02 kcal/mol
-----------------------------------------------------------------------
Final Gibbs free energy         ...  -1495.47782188 Eh

For completeness - the Gibbs free energy minus the electronic energy
G-E(el)                           ...      0.14532715 Eh     91.19 kcal/mol


Maximum memory used throughout the entire PROP-calculation: 112.9 MB

--------------------------------
SUGGESTED CITATIONS FOR THIS RUN
--------------------------------

Below you find a list of papers that are relevant to this ORCA run
We neither can nor want to force you to cite these papers, but we appreciate if you do
You receive ORCA, which is the product of decades of hard work by many enthusiastic individuals, for free
The only thing we kindly ask in return is that you cite our papers,
We deeply appreciate it, if you show your appreciation for ORCA by not just citing the generic ORCA reference.

Please note that relegating all ORCA citations to the supporting information does *not* help us.
SI sections are not indexed - citations you put there will not count into any citation statistics
But we need these citations in order to attract the funding resources that allow us to do what we are doing

Therefore, if you are a happy ORCA user, please consider citing a few of the papers listed below in the main body of your paper

In addition to the list printed below, the program has created the file compound_11_wb97xd3_def2svp_cpcm_water_freq.bibtex that contains the list in bibtex format
You can import this file easily into all common literature databanks and citation aid programs

It goes without saying that in many instances, there are alternative algorithms to achieve similar
results as the ones you have gotten from ORCA. It is, of course, also the case that in some instances
ORCA just re-implements algorithms worked out by others. We are fully aware of that and we are also
fully appreciative of our colleagues work. Hence this citation list should not be read as indicating
that the listed papers, which are focused on our own work, are the only ones worth citing. It simply
meant to make it easier for users to cite ORCA specific papers. It is not a substitute for doing your
own literature research and citing the relevant literature in a scientifically appropriate manner.

List of essential papers. We consider these as the minimum necessary citations

  1. Neese, F.
     Software update: the ORCA program system, version 6.0
     WIRES Comput. Molec. Sci. 2025 15(1), e70019
     doi.org/10.1002/wcms.70019

List of papers to cite with high priority. The work reported in these papers was absolutely
necessary for this run to complete.
Our perspective: the developers of density functionals and basis sets usually get cited in chemistry papers
Good! But without the algorithms to do something with them, the functionals or basis sets would not do anything.
Hence, in our opinion, the algorithm design and method developments papers are equally worthy of getting cited

  1. Neese, F.
     An improvement of the resolution of the identity approximation for the formation of the Coulomb matrix
     J. Comp. Chem. 2003 24(14), 1740-1747
     doi.org/10.1002/jcc.10318
  2. Neese, F.; Wennmohs, F.; Hansen, A.; Becker, U.
     Efficient, approximate and parallel Hartree-Fock and hybrid DFT calculations. A 'chain-of-spheres' algorithm for the Hartree-Fock exchange
     Chem. Phys. 2009 356(1-3), 98-109
     doi.org/10.1016/j.chemphys.2008.10.036
  3. Grimme, S.; Antony, J.; Ehrlich, S.; Krieg, H.
     A consistent and accurate ab initio parametrization of density functional dispersion correction (DFT-D) for the 94 elements H-Pu
     J. Chem. Phys. 2010 132 , 154104
     doi.org/10.1063/1.3382344
  4. Bykov, D.; Petrenko, T.; Izsak, R.; Kossmann, S.; Becker, U.; Valeev, E.; Neese, F.
     Efficient implementation of the analytic second derivatives of Hartree-Fock and hybrid DFT energies: a detailed analysis of different approximations
     Molec. Phys. 2015 113 , 1961-1977
     doi.org/10.1080/00268976.2015.1025114
  5. Garcia-Rates, M.; Neese, F.
     Efficient implementation of the analytical second derivatives of hartree-fock and hybrid DFT energies within the framework of the conductor-like polarizable continuum model
     J. Comput. Chem. 2019 40 , 1816-1828
     doi.org/10.1002/jcc.25833
  6. Garcia-Rates, M.; Neese, F.
     Effect of the Solute Cavity on the Solvation Energy and its Derivatives within the Framework of the Gaussian Charge Scheme
     J. Comput. Chem. 2020 41 , 922-939
     doi.org/10.1002/jcc.26139
  7. Helmich-Paris, B.; de Souza, B.; Neese, F.; Izsák, R.
     An improved chain of spheres for exchange algorithm
     J. Chem. Phys. 2021 155(10), 104109
     doi.org/10.1063/5.0058766
  8. Neese, F.
     The SHARK Integral Generation and Digestion System
     J. Comp. Chem. 2022 44(3), 381
     doi.org/10.1002/jcc.26942

List of suggested additional citations. These are papers that are important in the 'surrounding' of 
of this run, or papers that preceded the highly important papers. If you like your results we are grateful for a citation.

  1. Izsak, R.; Neese, F.
     An overlap fitted chain of spheres exchange method
     J. Chem. Phys. 2011 135 , 144105
     doi.org/10.1063/1.3646921
  2. Izsak, R.; Hansen, A.; Neese, F.
     The resolution of identity and chain of spheres approximations for the LPNO-CCSD singles Fock term
     Molec. Phys. 2012 110 , 2413-2417
     doi.org/10.1080/00268976.2012.687466
  3. Neese, F.
     The ORCA program system
     WIRES Comput. Molec. Sci. 2012 2(1), 73-78
     doi.org/10.1002/wcms.81
  4. Izsak, R.; Neese, F.; Klopper, W.
     Robust fitting techniques in the chain of spheres approximation to the Fock exchange: The role of the complementary space
     J. Chem. Phys. 2013 139 , 
     doi.org/10.1063/1.4819264
  5. Neese, F.
     Software update: the ORCA program system, version 4.0
     WIRES Comput. Molec. Sci. 2018 8(1), 1-6
     doi.org/10.1002/wcms.1327
  6. Neese, F.; Wennmohs, F.; Becker, U.; Riplinger, C.
     The ORCA quantum chemistry program package
     J. Chem. Phys. 2020 152(22), 224108
     doi.org/10.1063/5.0004608
  7. Neese, F.
     Software update: The ORCA program system—Version 5.0
     WIRES Comput. Molec. Sci. 2022 12(1), e1606
     doi.org/10.1002/wcms.1606

List of optional additional citations

  1. Neese, F.
     Approximate second-order SCF convergence for spin unrestricted wavefunctions
     Chem. Phys. Lett. 2000 325(1-3), 93-98
     doi.org/10.1016/s0009-2614(00)00662-x

Timings for individual modules:

Sum of individual times          ...      283.009 sec (=   4.717 min)
Startup calculation              ...        1.727 sec (=   0.029 min)   0.6 %
SCF iterations                   ...       31.391 sec (=   0.523 min)  11.1 %
Property integrals               ...       57.152 sec (=   0.953 min)  20.2 %
SCF Response                     ...       71.320 sec (=   1.189 min)  25.2 %
Property calculations            ...      121.418 sec (=   2.024 min)  42.9 %
                             ****ORCA TERMINATED NORMALLY****
TOTAL RUN TIME: 0 days 0 hours 4 minutes 43 seconds 652 msec
