
                                 *****************
                                 * O   R   C   A *
                                 *****************

                                            #,                                       
                                            ###                                      
                                            ####                                     
                                            #####                                    
                                            ######                                   
                                           ########,                                 
                                     ,,################,,,,,                         
                               ,,#################################,,                 
                          ,,##########################################,,             
                       ,#########################################, ''#####,          
                    ,#############################################,,   '####,        
                  ,##################################################,,,,####,       
                ,###########''''           ''''###############################       
              ,#####''   ,,,,##########,,,,          '''####'''          '####       
            ,##' ,,,,###########################,,,                        '##       
           ' ,,###''''                  '''############,,,                           
         ,,##''                                '''############,,,,        ,,,,,,###''
      ,#''                                            '''#######################'''  
     '                                                          ''''####''''         
             ,#######,   #######,   ,#######,      ##                                
            ,#'     '#,  ##    ##  ,#'     '#,    #''#        ,####,    ,#,          
            ##       ##  ##   ,#'  ##            #'  '#       #'       ,# #          
            ##       ##  #######   ##           ,######,      #####,      #          
            '#,     ,#'  ##    ##  '#,     ,#' ,#      #,     #,   #      #          
             '#######'   ##     ##  '#######'  #'      '#     '####' #    #          



                #########################################################
                #                        -***-                          #
                #          Department of theory and spectroscopy        #
                #                                                       #
                #                      Frank Neese                      #
                #                                                       #
                #     Directorship, Architecture, Infrastructure        #
                #                    SHARK, DRIVERS                     #
                #        Core code/Algorithms in most modules           #
                #                                                       #
                #        Max Planck Institute fuer Kohlenforschung      #
                #                Kaiser Wilhelm Platz 1                 #
                #                 D-45470 Muelheim/Ruhr                 #
                #                      Germany                          #
                #                                                       #
                #                  All rights reserved                  #
                #                        -***-                          #
                #########################################################


                         Program Version 6.1.1  -  RELEASE   -
                                (GIT: $487d211c$)
                          ($2025-11-21 10:33:24 +0100$)


 With contributions from (in alphabetic order):
[Max-Planck-Institut fuer Kohlenforschung]                               
  Daniel Aravena         : Magnetic Suceptibility                        
  Michael Atanasov       : Ab Initio Ligand Field Theory (pilot matlab implementation)
  Alexander A. Auer      : GIAO ZORA, VPT2 properties, NMR spectrum      
  Ute Becker             : All parallelization in ORCA, NUMFREQ, NUMCALC 
  Giovanni Bistoni       : ED, misc. LED, open-shell LED, HFLD           
  Dmytro Bykov           : pre 5.0 version of the SCF Hessian            
  Marcos Casanova-Páez   : Triplet and SCS-CIS(D). UHF-(DLPNO)-IP/EA/STEOM-CCSD. UHF-CVS-IP/STEOM-CCSD   
  Vijay G. Chilkuri      : MRCI spin determinant printing, contributions to CSF-ICE 
  Pauline Colinet        : FMM embedding                                 
  Dipayan Datta          : RHF DLPNO-CCSD density                        
  Achintya Kumar Dutta   : EOM-CC, STEOM-CC                              
  Nicolas Foglia         : Exact transition moments, OPA infrastructure, MCD improvements    
  Dmitry Ganyushin       : Spin-Orbit,Spin-Spin,Magnetic field MRCI      
  Miquel Garcia-Rates    : C-PCM and meta-GGA Hessian, CCSD/C-PCM, Gaussian charge scheme 
  Tiago L. C. Gouveia    : GS-ROHF, GS-ROCIS                             
  Yang Guo               : DLPNO-NEVPT2, F12-NEVPT2, CIM, IAO-localization        
  Andreas Hansen         : Spin unrestricted coupled pair/coupled cluster methods 
  Ingolf Harden          : AUTO-CI MPn and infrastructure                
  Benjamin Helmich-Paris : MC-RPA, TRAH-(SCF,CASSCF), AVAS, COSX integrals, SCF dyn. polar., MC-PDFT, srDFT 
  Lee Huntington         : MR-EOM, pCC                                   
  Robert Izsak           : Overlap fitted RIJCOSX, COSX-SCS-MP3, EOM     
  Riya Kayal             : Wick's Theorem for AUTO-CI, AUTO-CI UHF-CCSDT 
  Emily Kempfer          : AUTO-CI RHF CISDT and CCSDT, approximate NEVPT4
  Christian Kollmar      : KDIIS, OOCD, Brueckner-CCSD(T), CCSD density, CASPT2, CASPT2-K, improved NEVPT2 
  Axel Koslowski         : Symmetry handling                             
  Simone Kossmann        : meta-GGA functionals, TD-DFT gradient, OOMP2, (MP2 Hessian; deprecated post 5.0) 
  Lucas Lang             : DCDCAS, Hyperfine gauge corrections, ICE-SOC+SSC
  Marvin Lechner         : AUTO-CI (C++ implementation), FIC-MRCC        
  Spencer Leger          : CASSCF response                               
  Dagmar Lenk            : GEPOL surface, SMD, ORCA-2-JSON               
  Dimitrios Liakos       : Extrapolation schemes; Compound Job, Property file
  Dimitrios Manganas     : Further ROCIS development; embedding schemes. LFT, Crystal Embedding 
  Dimitrios Pantazis     : SARC Basis sets                               
  Anastasios Papadopoulos: AUTO-CI, single reference methods and gradients 
  Taras Petrenko         : pre 6.0 DFT Hessian and TD-DFT gradient,  ECA, NRVS 
  Petra Pikulova         : Analytic Raman intensities                    
  Peter Pinski           : DLPNO-MP2, DLPNO-MP2 Gradient                 
  Shashank Vittal Rao    : ES-AILFT, MagRelax                            
  Christoph Reimann      : Effective Core Potentials                     
  Marius Retegan         : Local ZFS, SOC                                
  Christoph Riplinger    : Optimizer, TS searches, QM/MM, DLPNO-CCSD(T), (RO)-DLPNO pert. Triples 
  Michael Roemelt        : Original ROCIS implementation, recursive CI coupling coefficients
  Masaaki Saitow         : Open-shell DLPNO-CCSD energy and density      
  Barbara Sandhoefer     : DKH picture change effects                    
  Yorick L. A. Schmerwitz: GMF and freeze-and-release deltaSCF, NEB S-IDPP initial path                    
  Kantharuban Sivalingam : CASSCF convergence/infrastructure, NEVPT2, NEVPT3, NEVPT4(SD), FIC-MRCI and CEPA variants
  Bernardo de Souza      : ESD, SOC TD-DFT                               
  Georgi L. Stoychev     : AutoAux, RI-MP2 NMR, DLPNO-MP2 response, X2C  
  Van Anh Tran           : RI-MP2 g-tensors                              
  Willem Van den Heuvel  : Paramagnetic NMR                              
  Zikuan Wang            : NOTCH, Electric field optimization            
  Frank Wennmohs         : Technical directorship and infrastructure     
  Hang Xu                : AUTO-CI-Response properties                   
                                                                         
[FACCTs GmbH]                                                            
  Markus Bursch, Nicolas Foglia, Miquel Garcia-Rates, Ingolf Harden, Hagen Neugebauer, Anastasios Papadopoulos, 
  Christoph Riplinger, Bernardo de Souza, Georgi L. Stoychev                                                    
                                                                 
  APM, various basis sets, CI-OPT, improved COSX, DLPNO-Multilevel,           
  DOCKER, DRACO, updates on ESD, Fragmentator, GOAT, IRC, LR-CPCM, L-BFGS, MBIS, meta-GGA TD-DFT gradient, ML-optimized integration grids, 
  MM, NACMEs, nearIR, NEB, NEB-TS, NL-DFT gradient (VV10), 2- and 3-layer-ONIOM, interface openCOSMO-RS, QMMM,   
  Crystal-QMMM, RESP, rigid body optimization, SF, symmetry and pop. for TD-DFT, various functionals, SOLVATOR                                   
                                                                         
[Other institutions]                                                     
  V. Asgeirsson          : NEB                                           
  Christoph Bannwarth    : sTDA-DFT, sTD-DFT, PBEh-3c, B97-3c, D3        
  Giovanni Bistoni       : ETS/NOCV, ADLD/ADEX, COVALED                  
  Martin Brehm           : Molecular dynamics                            
  Ronald Cardenas        : ETS/NOCV                                      
  Martina Colucci        : COVALED                                       
  Sebastian Ehlert       : rSCAN, r2SCAN, r2SCAN-3c, D4, dhf basis sets  
  Marvin Friede          : D4 for Fr, Ra, Ac-Lr                          
  Lars Goerigk           : TD-DFT with DH, B97 family of functionals     
  Stefan Grimme          : VdW corrections, initial TS optimization, DFT functionals, gCP, sTDA/sTD-DF 
  Waldemar Hujo          : DFT-NL                                        
  H. Jonsson             : NEB                                           
  Holger Kruse           : gCP                                           
  Marcel Mueller         : wB97X-3c, vDZP basis set                      
  Hagen Neugebauer       : wr2SCAN, Native XTB                           
  Gianluca Regni         : ADLD/ADEX                                     
  Tobias Risthaus        : pre 6.0 range-separated hybrid DFT and stability analysis
  Lukas Wittmann         : regularized MP2, r2SCAN double-hybrids, wr2SCAN        
                                                                         
We gratefully acknowledge several colleagues who have allowed us to      
interface, adapt or use parts of their codes:                            
  Ed Valeev, F. Pavosevic, A. Kumar             : LibInt (2-el integral package), F12 methods 
  Garnet Chan, S. Sharma, J. Yang, R. Olivares  : DMRG                   
  Ulf Ekstrom                                   : XCFun DFT Library      
  Mihaly Kallay                                 : mrcc  (arbitrary order and MRCC methods)
  Frank Weinhold                                : gennbo (NPA and NBO analysis)           
  Simon Mueller                                 : openCOSMO-RS                            
  Christopher J. Cramer and Donald G. Truhlar   : smd solvation model                     
  S Lehtola, MJT Oliveira, MAL Marques          : LibXC Library                           
  Liviu Ungur et al                             : ANISO software                          


 Your calculation uses the libint2 library for the computation of 2-el integrals
 For citations please refer to: http://libint.valeyev.net

 Your ORCA version has been built with support for libXC version: 7.0.0
 For citations please refer to: https://libxc.gitlab.io

 This ORCA versions uses:
   CBLAS   interface :  Fast vector & matrix operations
   LAPACKE interface :  Fast linear algebra routines
   SCALAPACK package :  Parallel linear algebra routines
   Shared memory     :  Shared parallel matrices
   BLAS/LAPACK       :  OpenBLAS 0.3.29  USE64BITINT DYNAMIC_ARCH NO_AFFINITY SkylakeX SINGLE_THREADED
        Core in use  :  SkylakeX
   Copyright (c) 2011-2014, The OpenBLAS Project


  ***********************************
  * Starting time: Fri Jul 10 23:36:34 2026
  * Host name:     tomasz-Precision-5820-Tower
  * Process ID:    315025
  * Working dir.:  /data/BIOFILM_INSILICO_SUPPORT/01_qm_orca_xtb/compound_11/outputs
  ***********************************

NOTE: MaxCore=3000 MB was set to SCF,MP2,MDCI,CIPSI,MRCI,RASCI and CIS
      => If you want to overwrite this, your respective input block should be placed after the MaxCore statement


***************************************
The coordinates will be read from file: ../inputs/compound_11_wb97xd3_def2svp_cpcm_water_start.xyz
***************************************


Your calculation utilizes the atom-pairwise dispersion correction
with the zero-damping scheme (D30)


XCFun DFT library Copyright 2009-2010 Ulf Ekstrom and contributors.
See http://admol.org/xcfun for more information.
This is free software; see the source code for copying conditions.
There is ABSOLUTELY NO WARRANTY; not even for MERCHANTABILITY or FITNESS FOR A PARTICULAR PURPOSE.
For details see the documentation.
Scientific users of this library should cite U. Ekstrom, L. Visscher, R. Bast, A. J. Thorvaldsen and K. Ruud;
J.Chem.Theor.Comp. 2010, DOI: 10.1021/ct100117s
XCFun Version 0.99 

Warning: RI is on but no J-basis has been assigned. Assigning Def2/J (nothing to worry about!)
================================================================================

----- Orbital basis set information -----
Your calculation utilizes the basis: def2-SVP
   F. Weigend and R. Ahlrichs, Phys. Chem. Chem. Phys. 7, 3297 (2005).

----- AuxJ basis set information -----
Your calculation utilizes the auxiliary basis: def2/J
   H-Rn: F. Weigend, Phys. Chem. Chem. Phys. 8, 1057 (2006).
   Fr-Lr: K. Eichkorn, F. Weigend, O. Treutler, R. Ahlrichs; Theor. Chem. Acc. 97, 119 (1997).

================================================================================
                                        WARNINGS
                       Please study these warnings very carefully!
================================================================================


WARNING: Geometry Optimization
  ===> : Switching off AutoStart
         For restart on a previous wavefunction, please use MOREAD

================================================================================
                                       INPUT FILE
================================================================================
NAME = compound_11_wb97xd3_def2svp_cpcm_water_opt.inp
|  1> ! wB97X-D3 def2-SVP CPCM(Water) TightSCF TightOpt
|  2> 
|  3> %pal
|  4>   nprocs 8
|  5> end
|  6> 
|  7> %maxcore 3000
|  8> 
|  9> %geom
| 10>   Calc_Hess true
| 11>   Recalc_Hess 10
| 12>   MaxIter 300
| 13> end
| 14> 
| 15> * xyzfile 0 1 ../inputs/compound_11_wb97xd3_def2svp_cpcm_water_start.xyz
| 16> 
| 17>                          ****END OF INPUT****
================================================================================

                       *****************************
                       * Geometry Optimization Run *
                       *****************************

Geometry optimization settings:
Update method            Update   .... BFGS
Choice of coordinates    CoordSys .... (2022) Redundant Internals
Initial Hessian          InHess   .... Almloef's Model
Max. no of cycles        MaxIter  .... 300

Convergence Tolerances:
Energy Change            TolE     ....  1.0000e-06 Eh
Max. Gradient            TolMAXG  ....  1.0000e-04 Eh/bohr
RMS Gradient             TolRMSG  ....  3.0000e-05 Eh/bohr
Max. Displacement        TolMAXD  ....  1.0000e-03 bohr
RMS Displacement         TolRMSD  ....  6.0000e-04 bohr
Strict Convergence                .... False

------------------------------------------------------------------------------
                        ORCA OPTIMIZATION COORDINATE SETUP
------------------------------------------------------------------------------

The optimization will be done in redundant internal coordinates (2022)
Making redundant internal coordinates   ...  (2022 redundants) done
Evaluating the initial hessian          ...  (Is done on the fly) done
Evaluating the coordinates              ...  done
Calculating the B-matrix                .... done
Calculating the G-matrix                .... done
The number of degrees of freedom        ....  137

    -----------------------------------------------------------------
                    Redundant Internal Coordinates


    -----------------------------------------------------------------
         Definition                    Initial Value    d2E/dq (diagonal element)
    -----------------------------------------------------------------
      1. B(C   1,O   0)                  1.2309         0.000000   
      2. B(C   2,C   1)                  1.5160         0.000000   
      3. B(C   3,C   2)                  1.5430         0.000000   
      4. B(N   4,C   3)                  1.4813         0.000000   
      5. B(N   5,N   4)                  1.3787         0.000000   
      6. B(C   6,N   5)                  1.2908         0.000000   
      7. B(N   7,C   6)                  1.3473         0.000000   
      8. B(S   8,C   6)                  1.7349         0.000000   
      9. B(C   9,S   8)                  1.7521         0.000000   
     10. B(C   9,N   4)                  1.3880         0.000000   
     11. B(S  10,C   9)                  1.6670         0.000000   
     12. B(C  11,C   3)                  1.5559         0.000000   
     13. B(O  12,C  11)                  1.4364         0.000000   
     14. B(C  13,O  12)                  1.4283         0.000000   
     15. B(C  13,C   1)                  1.5328         0.000000   
     16. B(O  14,C  13)                  1.4371         0.000000   
     17. B(C  15,O  14)                  1.4358         0.000000   
     18. B(C  15,C  11)                  1.5162         0.000000   
     19. B(H  16,C   2)                  1.0967         0.000000   
     20. B(H  17,C   2)                  1.0949         0.000000   
     21. B(H  18,C   3)                  1.0960         0.000000   
     22. B(H  19,N   7)                  1.0108         0.000000   
     23. B(H  20,N   7)                  1.0092         0.000000   
     24. B(H  21,C  11)                  1.0940         0.000000   
     25. B(H  22,C  13)                  1.0928         0.000000   
     26. B(H  23,C  15)                  1.0933         0.000000   
     27. B(H  24,C  15)                  1.0953         0.000000   
     28. A(C   2,C   1,C  13)          114.1855         0.000000   
     29. A(O   0,C   1,C  13)          123.4716         0.000000   
     30. A(O   0,C   1,C   2)          122.1448         0.000000   
     31. A(C   3,C   2,H  17)          112.0438         0.000000   
     32. A(C   1,C   2,H  17)          109.9325         0.000000   
     33. A(C   3,C   2,H  16)          109.4839         0.000000   
     34. A(H  16,C   2,H  17)          107.6218         0.000000   
     35. A(C   1,C   2,C   3)          111.0357         0.000000   
     36. A(C   1,C   2,H  16)          106.5113         0.000000   
     37. A(C   2,C   3,C  11)          113.2893         0.000000   
     38. A(N   4,C   3,H  18)          106.6451         0.000000   
     39. A(C   2,C   3,N   4)          111.6207         0.000000   
     40. A(C   2,C   3,H  18)          107.0616         0.000000   
     41. A(N   4,C   3,C  11)          109.8244         0.000000   
     42. A(C  11,C   3,H  18)          108.0811         0.000000   
     43. A(N   5,N   4,C   9)          115.7639         0.000000   
     44. A(C   3,N   4,C   9)          126.4423         0.000000   
     45. A(C   3,N   4,N   5)          117.6210         0.000000   
     46. A(N   4,N   5,C   6)          110.4626         0.000000   
     47. A(N   5,C   6,S   8)          116.5120         0.000000   
     48. A(N   5,C   6,N   7)          125.7902         0.000000   
     49. A(N   7,C   6,S   8)          117.6978         0.000000   
     50. A(H  19,N   7,H  20)          119.6194         0.000000   
     51. A(C   6,N   7,H  19)          119.1846         0.000000   
     52. A(C   6,N   7,H  20)          121.1942         0.000000   
     53. A(C   6,S   8,C   9)           88.5260         0.000000   
     54. A(S   8,C   9,S  10)          123.2916         0.000000   
     55. A(N   4,C   9,S  10)          128.0059         0.000000   
     56. A(N   4,C   9,S   8)          108.7021         0.000000   
     57. A(O  12,C  11,C  15)          100.2889         0.000000   
     58. A(C   3,C  11,C  15)          113.2427         0.000000   
     59. A(C  15,C  11,H  21)          111.9693         0.000000   
     60. A(O  12,C  11,H  21)          109.8719         0.000000   
     61. A(C   3,C  11,H  21)          111.5188         0.000000   
     62. A(C   3,C  11,O  12)          109.3522         0.000000   
     63. A(C  11,O  12,C  13)          101.5736         0.000000   
     64. A(O  12,C  13,O  14)          107.7731         0.000000   
     65. A(C   1,C  13,O  14)          107.0572         0.000000   
     66. A(O  14,C  13,H  22)          111.4539         0.000000   
     67. A(O  12,C  13,H  22)          111.5549         0.000000   
     68. A(C   1,C  13,H  22)          111.4209         0.000000   
     69. A(C   1,C  13,O  12)          107.3488         0.000000   
     70. A(C  13,O  14,C  15)          104.9203         0.000000   
     71. A(C  11,C  15,O  14)          104.6197         0.000000   
     72. A(H  23,C  15,H  24)          109.0860         0.000000   
     73. A(O  14,C  15,H  24)          107.0742         0.000000   
     74. A(C  11,C  15,H  24)          111.0554         0.000000   
     75. A(O  14,C  15,H  23)          110.5764         0.000000   
     76. A(C  11,C  15,H  23)          114.1460         0.000000   
     77. D(H  17,C   2,C   1,O   0)    -24.7967         0.000000   
     78. D(H  16,C   2,C   1,O   0)     91.5224         0.000000   
     79. D(C   3,C   2,C   1,C  13)     35.5985         0.000000   
     80. D(H  16,C   2,C   1,C  13)    -83.5272         0.000000   
     81. D(C   3,C   2,C   1,O   0)   -149.3519         0.000000   
     82. D(N   4,C   3,C   2,H  16)   -150.2733         0.000000   
     83. D(C  11,C   3,C   2,H  16)     85.1316         0.000000   
     84. D(N   4,C   3,C   2,C   1)     92.4003         0.000000   
     85. D(C  11,C   3,C   2,C   1)    -32.1947         0.000000   
     86. D(C  11,C   3,C   2,H  17)   -155.5470         0.000000   
     87. D(N   4,C   3,C   2,H  17)    -30.9519         0.000000   
     88. D(N   5,N   4,C   3,H  18)   -154.0030         0.000000   
     89. D(N   5,N   4,C   3,C   2)    -37.3938         0.000000   
     90. D(C   9,N   4,C   3,C   2)    147.6073         0.000000   
     91. D(N   5,N   4,C   3,C  11)     89.1170         0.000000   
     92. D(C   9,N   4,C   3,C  11)    -85.8819         0.000000   
     93. D(C   6,N   5,N   4,C   9)     -1.4907         0.000000   
     94. D(C   6,N   5,N   4,C   3)   -177.0246         0.000000   
     95. D(S   8,C   6,N   5,N   4)      0.2281         0.000000   
     96. D(N   7,C   6,N   5,N   4)   -179.7833         0.000000   
     97. D(H  20,N   7,C   6,S   8)      0.2691         0.000000   
     98. D(H  20,N   7,C   6,N   5)   -179.7194         0.000000   
     99. D(H  19,N   7,C   6,S   8)    179.7867         0.000000   
    100. D(H  19,N   7,C   6,N   5)     -0.2018         0.000000   
    101. D(C   9,S   8,C   6,N   7)   -179.2245         0.000000   
    102. D(C   9,S   8,C   6,N   5)      0.7651         0.000000   
    103. D(N   4,C   9,S   8,C   6)     -1.4828         0.000000   
    104. D(S  10,C   9,N   4,N   5)   -177.7352         0.000000   
    105. D(S   8,C   9,N   4,N   5)      2.0123         0.000000   
    106. D(S  10,C   9,N   4,C   3)     -2.6552         0.000000   
    107. D(S   8,C   9,N   4,C   3)    177.0923         0.000000   
    108. D(S  10,C   9,S   8,C   6)    178.2792         0.000000   
    109. D(C  15,C  11,C   3,H  18)     60.8227         0.000000   
    110. D(C  15,C  11,C   3,N   4)    176.7993         0.000000   
    111. D(C  15,C  11,C   3,C   2)    -57.6379         0.000000   
    112. D(O  12,C  11,C   3,H  18)    171.7309         0.000000   
    113. D(O  12,C  11,C   3,N   4)    -72.2925         0.000000   
    114. D(O  12,C  11,C   3,C   2)     53.2703         0.000000   
    115. D(C  13,O  12,C  11,H  21)    162.6983         0.000000   
    116. D(C  13,O  12,C  11,C  15)     44.6698         0.000000   
    117. D(C  13,O  12,C  11,C   3)    -74.5954         0.000000   
    118. D(H  22,C  13,O  12,C  11)   -160.5826         0.000000   
    119. D(O  14,C  13,O  12,C  11)    -37.9271         0.000000   
    120. D(C   1,C  13,O  12,C  11)     77.0873         0.000000   
    121. D(H  22,C  13,C   1,O   0)      2.8392         0.000000   
    122. D(O  14,C  13,C   1,C   2)     55.7180         0.000000   
    123. D(O  14,C  13,C   1,O   0)   -119.2569         0.000000   
    124. D(O  12,C  13,C   1,C   2)    -59.7726         0.000000   
    125. D(O  12,C  13,C   1,O   0)    125.2525         0.000000   
    126. D(C  15,O  14,C  13,H  22)    136.5439         0.000000   
    127. D(C  15,O  14,C  13,O  12)     13.8264         0.000000   
    128. D(C  15,O  14,C  13,C   1)   -101.3807         0.000000   
    129. D(H  24,C  15,O  14,C  13)   -103.4008         0.000000   
    130. D(H  23,C  15,O  14,C  13)    137.8696         0.000000   
    131. D(C  11,C  15,O  14,C  13)     14.5381         0.000000   
    132. D(H  23,C  15,C  11,H  21)     85.3401         0.000000   
    133. D(H  23,C  15,C  11,O  12)   -158.1882         0.000000   
    134. D(H  23,C  15,C  11,C   3)    -41.7967         0.000000   
    135. D(O  14,C  15,C  11,H  21)   -153.6641         0.000000   
    136. D(O  14,C  15,C  11,O  12)    -37.1924         0.000000   
    137. D(O  14,C  15,C  11,C   3)     79.1992         0.000000   
    -----------------------------------------------------------------

Number of atoms                         .... 25
Number of degrees of freedom            .... 137


         *************************************************************
         *                GEOMETRY OPTIMIZATION CYCLE   1            *
         *************************************************************
---------------------------------
CARTESIAN COORDINATES (ANGSTROEM)
---------------------------------
  O     -0.282656    0.122967    3.142377
  C     -0.724553   -0.039473    2.005088
  C     -0.333899   -1.228902    1.150217
  C     -0.353107   -0.863724   -0.348832
  N      0.976663   -0.408891   -0.816873
  N      1.730395    0.357493    0.046418
  C      2.829149    0.727636   -0.520853
  N      3.792299    1.481638    0.043886
  S      3.072796    0.199832   -2.155441
  C      1.512559   -0.594152   -2.083795
  S      0.843120   -1.414017   -3.371604
  C     -1.431186    0.198619   -0.709431
  O     -1.272199    1.345577    0.140497
  C     -1.795301    0.860142    1.377698
  O     -2.925440    0.024480    1.078382
  C     -2.837605   -0.224538   -0.332971
  H     -1.077497   -2.010920    1.345759
  H      0.641498   -1.612227    1.467339
  H     -0.582833   -1.782342   -0.900655
  H      3.672015    1.804172    0.994314
  H      4.625097    1.734544   -0.467057
  H     -1.361698    0.500741   -1.758605
  H     -2.070070    1.679511    2.046492
  H     -3.063773   -1.271246   -0.553276
  H     -3.583774    0.413082   -0.819073

----------------------------
CARTESIAN COORDINATES (A.U.)
----------------------------
  NO LB      ZA    FRAG     MASS         X           Y           Z
   0 O     8.0000    0    15.999   -0.534142    0.232374    5.938232
   1 C     6.0000    0    12.011   -1.369207   -0.074593    3.789067
   2 C     6.0000    0    12.011   -0.630978   -2.322288    2.173595
   3 C     6.0000    0    12.011   -0.667276   -1.632202   -0.659197
   4 N     7.0000    0    14.007    1.845626   -0.772692   -1.543666
   5 N     7.0000    0    14.007    3.269973    0.675564    0.087717
   6 C     6.0000    0    12.011    5.346317    1.375033   -0.984270
   7 N     7.0000    0    14.007    7.166407    2.799890    0.082933
   8 S    16.0000    0    32.060    5.806743    0.377628   -4.073193
   9 C     6.0000    0    12.011    2.858322   -1.122785   -3.937802
  10 S    16.0000    0    32.060    1.593266   -2.672105   -6.371408
  11 C     6.0000    0    12.011   -2.704550    0.375336   -1.340630
  12 O     8.0000    0    15.999   -2.404108    2.542772    0.265501
  13 C     6.0000    0    12.011   -3.392627    1.625433    2.603472
  14 O     8.0000    0    15.999   -5.528280    0.046260    2.037847
  15 C     6.0000    0    12.011   -5.362296   -0.424315   -0.629224
  16 H     1.0000    0     1.008   -2.036174   -3.800088    2.543116
  17 H     1.0000    0     1.008    1.212256   -3.046667    2.772869
  18 H     1.0000    0     1.008   -1.101395   -3.368138   -1.701991
  19 H     1.0000    0     1.008    6.939103    3.409391    1.878981
  20 H     1.0000    0     1.008    8.740167    3.277813   -0.882610
  21 H     1.0000    0     1.008   -2.573236    0.946263   -3.323282
  22 H     1.0000    0     1.008   -3.911865    3.173816    3.867309
  23 H     1.0000    0     1.008   -5.789692   -2.402307   -1.045540
  24 H     1.0000    0     1.008   -6.772351    0.780612   -1.547824

--------------------------------
INTERNAL COORDINATES (ANGSTROEM)
--------------------------------
 O      0   0   0     0.000000000000     0.00000000     0.00000000
 C      1   0   0     1.230888289704     0.00000000     0.00000000
 C      2   1   0     1.515967123785   122.14477546     0.00000000
 C      3   2   1     1.543007395753   111.03570452   210.64806604
 N      4   3   2     1.481291223382   111.62070088    92.40031597
 N      5   4   3     1.378668819536   117.62100882   322.60623788
 C      6   5   4     1.290760465929   110.46263354   182.97539656
 N      7   6   5     1.347259097807   125.79019367   180.21673594
 S      7   6   5     1.734882950740   116.51202532     0.22807107
 C      5   4   3     1.388019277611   126.44231063   147.60730447
 S     10   5   4     1.666967070289   128.00585077   357.34476434
 C      4   3   2     1.555910864636   113.28932316   327.80525847
 O     12   4   3     1.436372906009   109.35224324    53.27033148
 C     13  12   4     1.428267886648   101.57363898   285.40458280
 O     14  13  12     1.437057829533   107.77311107   322.07288816
 C     15  14  13     1.435841997630   104.92025666    13.82642996
 H      3   2   1     1.096689022327   106.51128708    91.52235773
 H      3   2   1     1.094944622398   109.93253457   335.20328901
 H      4   3   2     1.095966098166   107.06159164   208.75633315
 H      8   7   6     1.010846083732   119.18464102   359.79815653
 H      8   7   6     1.009245610785   121.19420278   180.28059206
 H     12   4   3     1.094016621128   111.51878267   174.98906570
 H     14  13  12     1.092771236791   111.55486453   199.41744119
 H     16  15  14     1.093290398070   110.57635270   137.86956458
 H     16  15  14     1.095272840604   107.07422249   256.59923621

---------------------------
INTERNAL COORDINATES (A.U.)
---------------------------
 O      0   0   0     0.000000000000     0.00000000     0.00000000
 C      1   0   0     2.326041768991     0.00000000     0.00000000
 C      2   1   0     2.864762691983   122.14477546     0.00000000
 C      3   2   1     2.915861400589   111.03570452   210.64806604
 N      4   3   2     2.799234736774   111.62070088    92.40031597
 N      5   4   3     2.605306498300   117.62100882   322.60623788
 C      6   5   4     2.439183785099   110.46263354   182.97539656
 N      7   6   5     2.545950726290   125.79019367   180.21673594
 S      7   6   5     3.278453651308   116.51202532     0.22807107
 C      5   4   3     2.622976303289   126.44231063   147.60730447
 S     10   5   4     3.150111237111   128.00585077   357.34476434
 C      4   3   2     2.940245422954   113.28932316   327.80525847
 O     12   4   3     2.714351418542   109.35224324    53.27033148
 C     13  12   4     2.699035151639   101.57363898   285.40458280
 O     14  13  12     2.715645736424   107.77311107   322.07288816
 C     15  14  13     2.713348147103   104.92025666    13.82642996
 H      3   2   1     2.072441906275   106.51128708    91.52235773
 H      3   2   1     2.069145468142   109.93253457   335.20328901
 H      4   3   2     2.071075777596   107.06159164   208.75633315
 H      8   7   6     1.910222261800   119.18464102   359.79815653
 H      8   7   6     1.907197806246   121.19420278   180.28059206
 H     12   4   3     2.067391799890   111.51878267   174.98906570
 H     14  13  12     2.065038364562   111.55486453   199.41744119
 H     16  15  14     2.066019437199   110.57635270   137.86956458
 H     16  15  14     2.069765710664   107.07422249   256.59923621

---------------------
BASIS SET INFORMATION
---------------------
There are 5 groups of distinct atoms

 Group   1 Type O   : 7s4p1d contracted to 3s2p1d pattern {511/31/1}
 Group   2 Type C   : 7s4p1d contracted to 3s2p1d pattern {511/31/1}
 Group   3 Type N   : 7s4p1d contracted to 3s2p1d pattern {511/31/1}
 Group   4 Type S   : 10s7p1d contracted to 4s3p1d pattern {5311/511/1}
 Group   5 Type H   : 4s1p contracted to 2s1p pattern {31/1}

Atom   0O    basis set group =>   1
Atom   1C    basis set group =>   2
Atom   2C    basis set group =>   2
Atom   3C    basis set group =>   2
Atom   4N    basis set group =>   3
Atom   5N    basis set group =>   3
Atom   6C    basis set group =>   2
Atom   7N    basis set group =>   3
Atom   8S    basis set group =>   4
Atom   9C    basis set group =>   2
Atom  10S    basis set group =>   4
Atom  11C    basis set group =>   2
Atom  12O    basis set group =>   1
Atom  13C    basis set group =>   2
Atom  14O    basis set group =>   1
Atom  15C    basis set group =>   2
Atom  16H    basis set group =>   5
Atom  17H    basis set group =>   5
Atom  18H    basis set group =>   5
Atom  19H    basis set group =>   5
Atom  20H    basis set group =>   5
Atom  21H    basis set group =>   5
Atom  22H    basis set group =>   5
Atom  23H    basis set group =>   5
Atom  24H    basis set group =>   5
---------------------------------
AUXILIARY/J BASIS SET INFORMATION
---------------------------------
There are 5 groups of distinct atoms

 Group   1 Type O   : 12s5p4d2f1g contracted to 6s4p3d1f1g pattern {711111/2111/211/2/1}
 Group   2 Type C   : 12s5p4d2f1g contracted to 6s4p3d1f1g pattern {711111/2111/211/2/1}
 Group   3 Type N   : 12s5p4d2f1g contracted to 6s4p3d1f1g pattern {711111/2111/211/2/1}
 Group   4 Type S   : 14s5p5d2f1g contracted to 8s4p3d1f1g pattern {71111111/2111/311/2/1}
 Group   5 Type H   : 5s2p1d contracted to 3s1p1d pattern {311/2/1}

Atom   0O    basis set group =>   1
Atom   1C    basis set group =>   2
Atom   2C    basis set group =>   2
Atom   3C    basis set group =>   2
Atom   4N    basis set group =>   3
Atom   5N    basis set group =>   3
Atom   6C    basis set group =>   2
Atom   7N    basis set group =>   3
Atom   8S    basis set group =>   4
Atom   9C    basis set group =>   2
Atom  10S    basis set group =>   4
Atom  11C    basis set group =>   2
Atom  12O    basis set group =>   1
Atom  13C    basis set group =>   2
Atom  14O    basis set group =>   1
Atom  15C    basis set group =>   2
Atom  16H    basis set group =>   5
Atom  17H    basis set group =>   5
Atom  18H    basis set group =>   5
Atom  19H    basis set group =>   5
Atom  20H    basis set group =>   5
Atom  21H    basis set group =>   5
Atom  22H    basis set group =>   5
Atom  23H    basis set group =>   5
Atom  24H    basis set group =>   5


           ************************************************************
           *        Program running with 8 parallel MPI-processes     *
           *              working on a common directory               *
           ************************************************************
------------------------------------------------------------------------------
                             ORCA STARTUP CALCULATIONS
                           -- RI-GTO INTEGRALS CHOSEN --
------------------------------------------------------------------------------
------------------------------------------------------------------------------
                   ___                                                        
                  /   \      - P O W E R E D   B Y -                         
                 /     \                                                     
                 |  |  |   _    _      __       _____    __    __             
                 |  |  |  | |  | |    /  \     |  _  \  |  |  /  |          
                  \  \/   | |  | |   /    \    | | | |  |  | /  /          
                 / \  \   | |__| |  /  /\  \   | |_| |  |  |/  /          
                |  |  |   |  __  | /  /__\  \  |    /   |      \           
                |  |  |   | |  | | |   __   |  |    \   |  |\   \          
                \     /   | |  | | |  |  |  |  | |\  \  |  | \   \       
                 \___/    |_|  |_| |__|  |__|  |_| \__\ |__|  \__/        
                                                                              
                      - O R C A' S   B I G   F R I E N D -                    
                                      &                                       
                       - I N T E G R A L  F E E D E R -                       
                                                                              
 v1 FN, 2020, v2 2021, v3 2022-2024                                           
------------------------------------------------------------------------------


----------------------
SHARK INTEGRAL PACKAGE
----------------------

Number of atoms                             ...     25
Number of basis functions                   ...    277
Number of shells                            ...    127
Maximum angular momentum                    ...      2
Integral batch strategy                     ... SHARK/LIBINT Hybrid
RI-J (if used) integral strategy            ... SPLIT-RIJ (Revised 2003 algorithm where possible)
Printlevel                                  ...      1
Contraction scheme used                     ... SEGMENTED contraction
Prescreening option                         ... SCHWARTZ
   Thresh                                   ... 2.500e-11
   Tcut                                     ... 2.500e-12
   Tpresel                                  ... 2.500e-12 
Coulomb Range Separation                    ... NOT USED
Exchange Range Separation                   ... Long Range
   Mu parameter                             ... 2.500e-01
   Scaling (regular/separated)              ... 1.957e-01 8.043e-01
Robust (split-)RI terms used:
  metric    (central integrals)             ... YES
  density   (r.h.s.  integrals)             ... YES
  potential (l.h.s.  integrals)             ... YES
Multipole approximations                    ... NOT USED
Finite Nucleus Model                        ... NOT USED
CABS basis                                  ... NOT available
Auxiliary Coulomb fitting basis             ... AVAILABLE
   # of basis functions in Aux-J            ...    887
   # of shells in Aux-J                     ...    289
   Maximum angular momentum in Aux-J        ...      4
Auxiliary J/K fitting basis                 ... NOT available
Auxiliary Correlation fitting basis         ... NOT available
Auxiliary 'external' fitting basis          ... NOT available

Checking pre-screening integrals            ... done (  0.0 sec) Dimension = 127
   => SHARK Basis and OBASIS are compatible. Storing Pre-screening
Shell pair information
Shell pair cut-off parameter TPreSel        ...   2.5e-12
Total number of shell pairs                 ...      8128
Shell pairs after pre-screening             ...      6790
Total number of primitive shell pairs       ...     31380
Primitive shell pairs kept                  ...     17256
          la=0 lb=0:   1963 shell pairs
          la=1 lb=0:   2471 shell pairs
          la=1 lb=1:    816 shell pairs
          la=2 lb=0:    873 shell pairs
          la=2 lb=1:    562 shell pairs
          la=2 lb=2:    105 shell pairs

Checking whether 4 symmetric matrices of dimension 277 fit in memory
:Max Core in MB      =   3000.00
 MB in use           =     12.08
 MB left             =   2987.92
 MB needed           =      1.18
 Data fit in memory  = YES
Calculating RI/J V-Matrix + Cholesky decomp.... done (  0.0 sec)
Calculating Nuclear repulsion               ... done (  0.0 sec) ENN=   1408.851055087995 Eh

Diagonalization of the overlap matrix:
Smallest eigenvalue                        ... 6.943e-04
Time for diagonalization                   ...    0.009 sec
Threshold for overlap eigenvalues          ... 1.000e-07
Number of eigenvalues below threshold      ... 0
Time for construction of square roots      ...    0.002 sec
Total time needed                          ...    0.012 sec

-------------------
DFT GRID GENERATION
-------------------

General Integration Accuracy     IntAcc      ... 4.388
Radial Grid Type                 RadialGrid  ... OptM3 with GC (2021)
Angular Grid (max. ang.)         AngularGrid ... 4 (Lebedev-302)
Angular grid pruning method      GridPruning ... 4 (adaptive)
Weight generation scheme         WeightScheme... mBecke (2022)
Basis function cutoff            BFCut       ... 1.0000e-11
Integration weight cutoff        WCut        ... 1.0000e-14
Partially contracted basis set               ... off
Rotationally invariant grid construction     ... off
Angular grids for H and He will be reduced by one unit

Total number of grid points                  ...   127103
Total number of batches                      ...     1998
Average number of points per batch           ...       63
Average number of grid points per atom       ...     5084

--------------------
COSX GRID GENERATION
--------------------

GRIDX 1
-------
General Integration Accuracy     IntAcc      ... 3.816
Radial Grid Type                 RadialGrid  ... OptM3 with GC (2021)
Angular Grid (max. ang.)         AngularGrid ... 1 (Lebedev-50)
Angular grid pruning method      GridPruning ... 4 (adaptive)
Weight generation scheme         WeightScheme... mBecke (2022)
Basis function cutoff            BFCut       ... 1.0000e-11
Integration weight cutoff        WCut        ... 1.0000e-14
Partially contracted basis set               ... on
Rotationally invariant grid construction     ... off
Angular grids for H and He will be reduced by one unit

Total number of grid points                  ...    18154
Total number of batches                      ...      157
Average number of points per batch           ...      115
Average number of grid points per atom       ...      726
UseSFitting                                  ... on

GRIDX 2
-------
General Integration Accuracy     IntAcc      ... 4.020
Radial Grid Type                 RadialGrid  ... OptM3 with GC (2021)
Angular Grid (max. ang.)         AngularGrid ... 2 (Lebedev-110)
Angular grid pruning method      GridPruning ... 4 (adaptive)
Weight generation scheme         WeightScheme... mBecke (2022)
Basis function cutoff            BFCut       ... 1.0000e-11
Integration weight cutoff        WCut        ... 1.0000e-14
Partially contracted basis set               ... on
Rotationally invariant grid construction     ... off
Angular grids for H and He will be reduced by one unit

Total number of grid points                  ...    35340
Total number of batches                      ...      287
Average number of points per batch           ...      123
Average number of grid points per atom       ...     1414
UseSFitting                                  ... on

GRIDX 3
-------
General Integration Accuracy     IntAcc      ... 4.338
Radial Grid Type                 RadialGrid  ... OptM3 with GC (2021)
Angular Grid (max. ang.)         AngularGrid ... 3 (Lebedev-194)
Angular grid pruning method      GridPruning ... 4 (adaptive)
Weight generation scheme         WeightScheme... mBecke (2022)
Basis function cutoff            BFCut       ... 1.0000e-11
Integration weight cutoff        WCut        ... 1.0000e-14
Partially contracted basis set               ... on
Rotationally invariant grid construction     ... off
Angular grids for H and He will be reduced by one unit

Total number of grid points                  ...    78663
Total number of batches                      ...      630
Average number of points per batch           ...      124
Average number of grid points per atom       ...     3147
UseSFitting                                  ... on
Grids setup in   1.1 sec
Initializing property integral containers    ... done (  0.0 sec)

SHARK setup successfully completed in   1.3 seconds

Maximum memory used throughout the entire STARTUP-calculation: 35.6 MB


           ************************************************************
           *        Program running with 8 parallel MPI-processes     *
           *              working on a common directory               *
           ************************************************************
-------------------------------------------------------------------------------
                                 ORCA GUESS
                   Start orbitals & Density for SCF / CASSCF
-------------------------------------------------------------------------------

------------
SCF SETTINGS
------------
Hamiltonian:
 Density Functional     Method          .... DFT(GTOs)
 Exchange Functional    Exchange        .... WB97X-D3
 Correlation Functional Correlation     .... WB97X-D3
 Gradients option       PostSCFGGA      .... off
 Hybrid DFT is turned on
   Fraction HF Exchange ScalHFX         ....  0.195728
   Scaling of DF-GGA-X  ScalDFX         ....  0.000000
   Scaling of DF-GGA-C  ScalDFC         ....  1.000000
   Scaling of DF-LDA-C  ScalLDAC        ....  1.000000
   Perturbative correction              ....  0.000000
 Long-range corrected/Screened/Range-Separated Hybrid DFT is turned on
   Amount of maximum screened exact exchange              ....  0.804272
   Range separation parameter mu (erf(mu*r12)/r12)        ....  0.250000
 RI-approximation to the Coulomb term is turned on
   Number of AuxJ basis functions       .... 887
   RIJ-COSX (HFX calculated with COS-X)).... on


General Settings:
 Integral files         IntName         .... compound_11_wb97xd3_def2svp_cpcm_water_opt
 Hartree-Fock type      HFTyp           .... RHF
 Total Charge           Charge          ....    0
 Multiplicity           Mult            ....    1
 Number of Electrons    NEL             ....  134
 Basis Dimension        Dim             ....  277
 Nuclear Repulsion      ENuc            ....   1408.8510550880 Eh

Convergence Acceleration:
 AO-DIIS                CNVDIIS         .... on
   Start iteration      DIISMaxIt       ....    12
   Startup error        DIISStart       ....  0.200000
   # of expansion vecs  DIISMaxEq       ....     5
   Bias factor          DIISBfac        ....   1.050
   Max. coefficient     DIISMaxC        ....  10.000
 MO-DIIS                CNVKDIIS        .... off
 Trust-Rad. Augm. Hess. CNVTRAH         .... auto
   Auto Start mean grad. ratio tolernc. ....  1.125000
   Auto Start start iteration           ....    50
   Auto Start num. interpolation iter.  ....    10
   Max. Number of Micro iterations      ....    24
   Max. Number of Macro iterations      .... Maxiter - #DIIS iter
   Number of Davidson start vectors     ....     2
   Converg. threshold    (grad. norm)   ....   1.000e-05
   Grad. Scal. Fac. for Micro threshold ....   0.100
   Minimum threshold for Micro iter.    ....   1.000e-02
   NR start threshold (gradient norm)   ....   1.000e-04
   Initial trust radius                 ....   0.400
   Minimum AH scaling param. (alpha)    ....   1.000
   Maximum AH scaling param. (alpha)    .... 1000.000
   Quad. conv. algorithm                .... NR
   White noise on init. David. guess    .... on
   Maximum white noise                  ....   0.010
   Pseudo random numbers                .... off
   Inactive MOs                         .... canonical
   Orbital update algorithm             .... Taylor
   Preconditioner                       .... Diag
   Full preconditioner red. dimension   ....   250
 SOSCF                 CNVSOSCF           .... on
   Start iteration     SOSCFMaxIt         ....   150
   Startup grad/error  SOSCFStart         ....  0.003300
   Hessian update      SOSCFHessUp        .... L-BFGS
   Autom. constraints  SOSCFAutoConstrain .... off
 Level Shifting         CNVShift        .... on
   Level shift para.    LevelShift      ....    0.2500
   Turn off err/grad.   ShiftErr        ....    0.0010
 Zerner damping         CNVZerner       .... off
 Static damping         CNVDamp         .... on
   Fraction old density DampFac         ....    0.7000
   Max. Damping (<1)    DampMax         ....    0.9800
   Min. Damping (>=0)   DampMin         ....    0.0000
   Turn off err/grad.   DampErr         ....    0.1000

SCF Procedure:
 Maximum # iterations   MaxIter         ....   125
 SCF integral mode      SCFMode         .... Direct
   Integral package                     .... SHARK and LIBINT hybrid scheme
 Reset frequency        DirectResetFreq ....    20
 Integral Threshold     Thresh          ....  2.500e-11 Eh
 Primitive CutOff       TCut            ....  2.500e-12 Eh

Convergence Tolerance:
 Convergence Check Mode ConvCheckMode   .... Total+1el-Energy
 Convergence forced     ConvForced      .... 0
 Energy Change          TolE            ....  1.000e-08 Eh
 1-El. energy change                    ....  1.000e-05 Eh
 Orbital Gradient       TolG            ....  1.000e-05
 Orbital Rotation angle TolX            ....  1.000e-05
 DIIS Error             TolErr          ....  5.000e-07

------------------------------
INITIAL GUESS: MODEL POTENTIAL
------------------------------
Loading Hartree-Fock densities                     ... done
Calculating cut-offs                               ... done
Initializing the effective Hamiltonian             ... done
Setting up the integral package (SHARK)            ... done
Starting the Coulomb interaction                   ... done (   0.1 sec)
Making the grid                                    ... done (   0.1 sec)
Mapping shells                                     ... done
Starting the XC term evaluation                    ... done (   0.0 sec)
  promolecular density results
     # of electrons  =    133.992890409
     EX              =   -137.491343071
     EC              =     -4.743155323
     EX+EC           =   -142.234498394
Transforming the Hamiltonian                       ... done (   0.0 sec)
Diagonalizing the Hamiltonian                      ... done (   0.0 sec)
Back transforming the eigenvectors                 ... done (   0.0 sec)
Now organizing SCF variables                       ... done
                      ------------------
                      INITIAL GUESS DONE (   0.3 sec)
                      ------------------
             **** ENERGY FILE WAS UPDATED (compound_11_wb97xd3_def2svp_cpcm_water_opt.en.tmp) ****
Finished Guess after   0.7 sec
Maximum memory used throughout the entire GUESS-calculation: 15.7 MB


           ************************************************************
           *        Program running with 8 parallel MPI-processes     *
           *              working on a common directory               *
           ************************************************************

-------------------------------------------------------------------------------------------
                                      ORCA LEAN-SCF
                              memory conserving SCF solver
-------------------------------------------------------------------------------------------

--------------------
CPCM SOLVATION MODEL
--------------------
CPCM parameters:
  Epsilon                                         ...      80.1510
  Refrac                                          ...       1.3328
  Rsolv                                           ...       1.3000
  Surface type                                    ... GAUSSIAN VDW
  Discretization scheme                           ... Constant charge density
    Threshold for H atoms                         ...       5.0000 (charges/Ang^2)
    Threshold for non-H atoms                     ...       5.0000 (charges/Ang^2)
  Epsilon function type                           ...         CPCM
Solvent:                                          ... WATER
Radii:
  Scheme                                          ... Element-dependent radii
  Radius for O  used is    3.4469 Bohr (=   1.8240 Ang.)
  Radius for C  used is    3.8550 Bohr (=   2.0400 Ang.)
  Radius for N  used is    3.5149 Bohr (=   1.8600 Ang.)
  Radius for S  used is    4.0818 Bohr (=   2.1600 Ang.)
  Radius for H  used is    2.4944 Bohr (=   1.3200 Ang.)
Calculating surface                               ...        done! (  0.0s)
Cavity surface points                             ...         2208
Cavity Volume                                     ...    1771.0175
Cavity Surface-area                               ...     921.3854
Calculating surface distance matrix               ...        done! (  0.0s)
Performing Cholesky decomposition & store         ...        done! (  0.1s)
Overall time for CPCM initialization              ...                 0.1s

----------------------------------------D-I-I-S--------------------------------------------
Iteration    Energy (Eh)           Delta-E    RMSDP     MaxDP     DIISErr   Damp  Time(sec)
-------------------------------------------------------------------------------------------
               ***  Starting incremental Fock matrix formation  ***
    1    -1495.3381738397492882     0.00e+00  6.32e-03  7.24e-02  2.22e-01  0.700   2.7
    2    -1495.4484277535912042    -1.10e-01  4.52e-03  5.65e-02  1.05e-01  0.700   1.4
                               ***Turning on AO-DIIS***
    3    -1495.4998086592459003    -5.14e-02  2.22e-03  3.31e-02  4.66e-02  0.700   1.4
    4    -1495.5310331607097396    -3.12e-02  4.72e-03  6.65e-02  2.72e-02  0.000   1.4
                              *** Initializing SOSCF ***
---------------------------------------S-O-S-C-F--------------------------------------
Iteration    Energy (Eh)           Delta-E    RMSDP     MaxDP     MaxGrad    Time(sec)
--------------------------------------------------------------------------------------
    5    -1495.5995962406718718    -6.86e-02  4.94e-04  5.75e-03  3.16e-03     1.4
               *** Restarting incremental Fock matrix formation ***
    6    -1495.5998286014996665    -2.32e-04  4.13e-04  5.06e-03  1.39e-03     2.9
    7    -1495.5999099138134625    -8.13e-05  3.31e-04  3.97e-03  8.03e-04     2.1
    8    -1495.5999285950742888    -1.87e-05  1.12e-04  1.12e-03  6.12e-04     2.0
    9    -1495.5999362737666161    -7.68e-06  3.37e-05  6.54e-04  7.91e-05     1.9
   10    -1495.5999364790900472    -2.05e-07  1.32e-05  1.72e-04  4.40e-05     1.7
   11    -1495.5999366906930845    -2.12e-07  6.63e-06  1.15e-04  2.20e-05     1.5
   12    -1495.5999367119020462    -2.12e-08  2.91e-06  4.95e-05  7.65e-06     1.4
   13    -1495.5999367125718891    -6.70e-10  1.16e-06  1.52e-05  4.79e-06     1.4
                 **** Energy Check signals convergence ****

               *****************************************************
               *                     SUCCESS                       *
               *           SCF CONVERGED AFTER  13 CYCLES          *
               *****************************************************

Recomputing exchange energy using gridx3       ... done (    4.602 sec)
Old exchange energy                            :    -41.693665893 Eh
New exchange energy                            :    -41.693674834 Eh
Exchange energy change after final integration :     -0.000008941 Eh
Total energy after final integration           :  -1495.599945653 Eh
             **** ENERGY FILE WAS UPDATED (compound_11_wb97xd3_def2svp_cpcm_water_opt.en.tmp) ****

----------------
TOTAL SCF ENERGY
----------------

Total Energy       :      -1495.59994565333932 Eh          -40697.34353 eV

Components:
Nuclear Repulsion  :       1408.85105508799506 Eh           38336.78621 eV
Electronic Energy  :      -2904.41833396634865 Eh          -79033.24084 eV
One Electron Energy:      -4854.61868001830044 Eh         -132100.89016 eV
Two Electron Energy:       1950.20034605195201 Eh           53067.64932 eV
CPCM Dielectric    :         -0.03265783421484 Eh              -0.88866 eV

Virial components:
Potential Energy   :      -2982.70335083459486 Eh          -81163.48445 eV
Kinetic Energy     :       1487.10340518125554 Eh           40466.14091 eV
Virial Ratio       :          2.00571348330081

DFT components:
N(Alpha)           :       67.000085962768 electrons
N(Beta)            :       67.000085962768 electrons
N(Total)           :      134.000171925537 electrons
E(XC)              :     -102.751177654478 Eh       

CPCM Solvation Model Properties:
Surface-charge          :         -0.01534879606977
Corrected charge        :         -0.00000000000000
Outlying charge corr.   :          0.00001428723221 Eh               0.00039 eV
Free-energy (cav+disp)  :  This term is not implemented in the current solvation scheme

---------------
SCF CONVERGENCE
---------------

  Last Energy change         ...    6.6984e-10  Tolerance :   1.0000e-08
  Last MAX-Density change    ...    1.5234e-05  Tolerance :   1.0000e-07
  Last RMS-Density change    ...    1.1556e-06  Tolerance :   5.0000e-09
  Last DIIS Error            ...    3.1602e-03  Tolerance :   5.0000e-07
  Last Orbital Gradient      ...    4.7941e-06  Tolerance :   1.0000e-05
  Last Orbital Rotation      ...    2.1972e-05  Tolerance :   1.0000e-05


----------------
ORBITAL ENERGIES
----------------

  NO   OCC          E(Eh)            E(eV) 
   0   2.0000     -88.991675     -2421.5866 
   1   2.0000     -88.895898     -2418.9804 
   2   2.0000     -19.277545      -524.5687 
   3   2.0000     -19.268280      -524.3165 
   4   2.0000     -19.249593      -523.8081 
   5   2.0000     -14.537566      -395.5873 
   6   2.0000     -14.467762      -393.6878 
   7   2.0000     -14.463890      -393.5825 
   8   2.0000     -10.416594      -283.4499 
   9   2.0000     -10.409243      -283.2499 
  10   2.0000     -10.404831      -283.1298 
  11   2.0000     -10.395306      -282.8706 
  12   2.0000     -10.365411      -282.0572 
  13   2.0000     -10.363259      -281.9986 
  14   2.0000     -10.347904      -281.5808 
  15   2.0000     -10.313321      -280.6397 
  16   2.0000      -8.109834      -220.6798 
  17   2.0000      -8.012334      -218.0267 
  18   2.0000      -6.069229      -165.1521 
  19   2.0000      -6.065099      -165.0397 
  20   2.0000      -6.060232      -164.9073 
  21   2.0000      -5.972928      -162.5316 
  22   2.0000      -5.966806      -162.3651 
  23   2.0000      -5.963265      -162.2687 
  24   2.0000      -1.224084       -33.3090 
  25   2.0000      -1.181191       -32.1418 
  26   2.0000      -1.152850       -31.3706 
  27   2.0000      -1.120038       -30.4778 
  28   2.0000      -1.062898       -28.9229 
  29   2.0000      -0.974453       -26.5162 
  30   2.0000      -0.966140       -26.2900 
  31   2.0000      -0.906666       -24.6716 
  32   2.0000      -0.899720       -24.4826 
  33   2.0000      -0.838173       -22.8079 
  34   2.0000      -0.791001       -21.5242 
  35   2.0000      -0.776913       -21.1409 
  36   2.0000      -0.742359       -20.2006 
  37   2.0000      -0.739495       -20.1227 
  38   2.0000      -0.700156       -19.0522 
  39   2.0000      -0.676067       -18.3967 
  40   2.0000      -0.655642       -17.8409 
  41   2.0000      -0.641984       -17.4693 
  42   2.0000      -0.611635       -16.6434 
  43   2.0000      -0.604125       -16.4391 
  44   2.0000      -0.588034       -16.0012 
  45   2.0000      -0.577070       -15.7029 
  46   2.0000      -0.569064       -15.4850 
  47   2.0000      -0.564520       -15.3614 
  48   2.0000      -0.549261       -14.9462 
  49   2.0000      -0.540728       -14.7139 
  50   2.0000      -0.530821       -14.4444 
  51   2.0000      -0.513234       -13.9658 
  52   2.0000      -0.507842       -13.8191 
  53   2.0000      -0.486481       -13.2378 
  54   2.0000      -0.482033       -13.1168 
  55   2.0000      -0.476791       -12.9742 
  56   2.0000      -0.464491       -12.6394 
  57   2.0000      -0.459277       -12.4976 
  58   2.0000      -0.451033       -12.2732 
  59   2.0000      -0.419698       -11.4206 
  60   2.0000      -0.414633       -11.2827 
  61   2.0000      -0.410855       -11.1799 
  62   2.0000      -0.388731       -10.5779 
  63   2.0000      -0.356243        -9.6939 
  64   2.0000      -0.341512        -9.2930 
  65   2.0000      -0.318500        -8.6668 
  66   2.0000      -0.293564        -7.9883 
  67   0.0000       0.027721         0.7543 
  68   0.0000       0.045554         1.2396 
  69   0.0000       0.075058         2.0424 
  70   0.0000       0.100514         2.7351 
  71   0.0000       0.147013         4.0004 
  72   0.0000       0.160856         4.3771 
  73   0.0000       0.167013         4.5447 
  74   0.0000       0.184909         5.0316 
  75   0.0000       0.194414         5.2903 
  76   0.0000       0.198607         5.4044 
  77   0.0000       0.203696         5.5428 
*Only the first 10 virtual orbitals were printed.

                    ********************************
                    * MULLIKEN POPULATION ANALYSIS *
                    ********************************

-----------------------
MULLIKEN ATOMIC CHARGES
-----------------------
   0 O :   -0.255533
   1 C :    0.105254
   2 C :    0.011688
   3 C :    0.094050
   4 N :   -0.209879
   5 N :   -0.102101
   6 C :   -0.017369
   7 N :   -0.103452
   8 S :    0.109889
   9 C :    0.065417
  10 S :   -0.355199
  11 C :    0.018058
  12 O :   -0.393521
  13 C :    0.298129
  14 O :   -0.432368
  15 C :    0.266899
  16 H :    0.114499
  17 H :    0.077498
  18 H :    0.070923
  19 H :    0.182478
  20 H :    0.186192
  21 H :    0.072615
  22 H :    0.061369
  23 H :    0.068732
  24 H :    0.065733
Sum of atomic charges:   -0.0000000

--------------------------------
MULLIKEN REDUCED ORBITAL CHARGES
--------------------------------
  0 O s       :     3.739594  s :     3.739594
      pz      :     1.352847  p :     4.498936
      px      :     1.497554
      py      :     1.648534
      dz2     :     0.006743  d :     0.017004
      dxz     :     0.005069
      dyz     :     0.003738
      dx2y2   :     0.000668
      dxy     :     0.000786

  1 C s       :     3.121351  s :     3.121351
      pz      :     0.854273  p :     2.682257
      px      :     0.859591
      py      :     0.968392
      dz2     :     0.022556  d :     0.091138
      dxz     :     0.022094
      dyz     :     0.028693
      dx2y2   :     0.008222
      dxy     :     0.009573

  2 C s       :     2.993421  s :     2.993421
      pz      :     0.900940  p :     2.964965
      px      :     1.049056
      py      :     1.014969
      dz2     :     0.007920  d :     0.029927
      dxz     :     0.003586
      dyz     :     0.008130
      dx2y2   :     0.003815
      dxy     :     0.006476

  3 C s       :     3.039831  s :     3.039831
      pz      :     1.023983  p :     2.815426
      px      :     0.780817
      py      :     1.010627
      dz2     :     0.009841  d :     0.050692
      dxz     :     0.008970
      dyz     :     0.009158
      dx2y2   :     0.011296
      dxy     :     0.011428

  4 N s       :     3.404460  s :     3.404460
      pz      :     1.102631  p :     3.766744
      px      :     1.243700
      py      :     1.420414
      dz2     :     0.009383  d :     0.038675
      dxz     :     0.009731
      dyz     :     0.006964
      dx2y2   :     0.006044
      dxy     :     0.006554

  5 N s       :     3.535671  s :     3.535671
      pz      :     1.308057  p :     3.530034
      px      :     1.041235
      py      :     1.180741
      dz2     :     0.005341  d :     0.036397
      dxz     :     0.010904
      dyz     :     0.008156
      dx2y2   :     0.006853
      dxy     :     0.005145

  6 C s       :     3.067577  s :     3.067577
      pz      :     0.955960  p :     2.857596
      px      :     0.955758
      py      :     0.945878
      dz2     :     0.018621  d :     0.092196
      dxz     :     0.020075
      dyz     :     0.011696
      dx2y2   :     0.022795
      dxy     :     0.019008

  7 N s       :     3.292191  s :     3.292191
      pz      :     1.114766  p :     3.797355
      px      :     1.182044
      py      :     1.500545
      dz2     :     0.002739  d :     0.013906
      dxz     :     0.003846
      dyz     :     0.001908
      dx2y2   :     0.002697
      dxy     :     0.002716

  8 S s       :     5.861477  s :     5.861477
      pz      :     3.195117  p :     9.928294
      px      :     3.254774
      py      :     3.478403
      dz2     :     0.037145  d :     0.100340
      dxz     :     0.012666
      dyz     :     0.015342
      dx2y2   :     0.016347
      dxy     :     0.018841

  9 C s       :     3.126748  s :     3.126748
      pz      :     0.885246  p :     2.738058
      px      :     0.909161
      py      :     0.943652
      dz2     :     0.023084  d :     0.069776
      dxz     :     0.014538
      dyz     :     0.012804
      dx2y2   :     0.008922
      dxy     :     0.010429

 10 S s       :     5.940520  s :     5.940520
      pz      :     3.274358  p :    10.361038
      px      :     3.646276
      py      :     3.440405
      dz2     :     0.011504  d :     0.053641
      dxz     :     0.013633
      dyz     :     0.017689
      dx2y2   :     0.005231
      dxy     :     0.005584

 11 C s       :     3.164101  s :     3.164101
      pz      :     0.985782  p :     2.751938
      px      :     0.946102
      py      :     0.820054
      dz2     :     0.013298  d :     0.065904
      dxz     :     0.006963
      dyz     :     0.015930
      dx2y2   :     0.014072
      dxy     :     0.015640

 12 O s       :     3.794642  s :     3.794642
      pz      :     1.261987  p :     4.582173
      px      :     1.785084
      py      :     1.535102
      dz2     :     0.002754  d :     0.016705
      dxz     :     0.002607
      dyz     :     0.005605
      dx2y2   :     0.003159
      dxy     :     0.002581

 13 C s       :     3.071861  s :     3.071861
      pz      :     0.801187  p :     2.536766
      px      :     0.794079
      py      :     0.941500
      dz2     :     0.017341  d :     0.093243
      dxz     :     0.019746
      dyz     :     0.019491
      dx2y2   :     0.015527
      dxy     :     0.021139

 14 O s       :     3.781773  s :     3.781773
      pz      :     1.383847  p :     4.634853
      px      :     1.571230
      py      :     1.679775
      dz2     :     0.005382  d :     0.015742
      dxz     :     0.002799
      dyz     :     0.001910
      dx2y2   :     0.002091
      dxy     :     0.003561

 15 C s       :     2.979345  s :     2.979345
      pz      :     0.699764  p :     2.695850
      px      :     0.953610
      py      :     1.042476
      dz2     :     0.019951  d :     0.057906
      dxz     :     0.011977
      dyz     :     0.012284
      dx2y2   :     0.007649
      dxy     :     0.006044

 16 H s       :     0.861179  s :     0.861179
      pz      :     0.004345  p :     0.024322
      px      :     0.009738
      py      :     0.010239

 17 H s       :     0.899683  s :     0.899683
      pz      :     0.004149  p :     0.022819
      px      :     0.013657
      py      :     0.005012

 18 H s       :     0.907144  s :     0.907144
      pz      :     0.006768  p :     0.021933
      px      :     0.002732
      py      :     0.012433

 19 H s       :     0.772351  s :     0.772351
      pz      :     0.025039  p :     0.045172
      px      :     0.007967
      py      :     0.012166

 20 H s       :     0.767575  s :     0.767575
      pz      :     0.012231  p :     0.046233
      px      :     0.022046
      py      :     0.011955

 21 H s       :     0.905836  s :     0.905836
      pz      :     0.015060  p :     0.021549
      px      :     0.003398
      py      :     0.003091

 22 H s       :     0.918178  s :     0.918178
      pz      :     0.007456  p :     0.020453
      px      :     0.002989
      py      :     0.010007

 23 H s       :     0.908784  s :     0.908784
      pz      :     0.002802  p :     0.022484
      px      :     0.004647
      py      :     0.015035

 24 H s       :     0.912551  s :     0.912551
      pz      :     0.004545  p :     0.021717
      px      :     0.009003
      py      :     0.008169



                     *******************************
                     * LOEWDIN POPULATION ANALYSIS *
                     *******************************

----------------------
LOEWDIN ATOMIC CHARGES
----------------------
   0 O :   -0.193943
   1 C :    0.086722
   2 C :   -0.051544
   3 C :    0.037898
   4 N :    0.029382
   5 N :   -0.171635
   6 C :   -0.097351
   7 N :   -0.004877
   8 S :    0.393756
   9 C :   -0.246972
  10 S :   -0.230075
  11 C :    0.058487
  12 O :   -0.174211
  13 C :    0.141051
  14 O :   -0.201549
  15 C :    0.085738
  16 H :    0.073315
  17 H :    0.053761
  18 H :    0.043427
  19 H :    0.109011
  20 H :    0.108175
  21 H :    0.045673
  22 H :    0.034653
  23 H :    0.037929
  24 H :    0.033181

-------------------------------
LOEWDIN REDUCED ORBITAL CHARGES
-------------------------------
  0 O s       :     3.556043  s :     3.556043
      pz      :     1.453801  p :     4.609029
      px      :     1.508333
      py      :     1.646896
      dz2     :     0.012098  d :     0.028871
      dxz     :     0.008737
      dyz     :     0.005935
      dx2y2   :     0.001062
      dxy     :     0.001039

  1 C s       :     2.904770  s :     2.904770
      pz      :     0.979326  p :     2.802971
      px      :     0.875548
      py      :     0.948097
      dz2     :     0.049995  d :     0.205537
      dxz     :     0.050807
      dyz     :     0.066588
      dx2y2   :     0.018041
      dxy     :     0.020106

  2 C s       :     2.841924  s :     2.841924
      pz      :     0.993766  p :     3.129110
      px      :     1.086701
      py      :     1.048644
      dz2     :     0.022563  d :     0.080509
      dxz     :     0.008808
      dyz     :     0.021598
      dx2y2   :     0.010256
      dxy     :     0.017284

  3 C s       :     2.847491  s :     2.847491
      pz      :     1.044080  p :     2.994073
      px      :     0.893493
      py      :     1.056499
      dz2     :     0.025368  d :     0.120538
      dxz     :     0.019527
      dyz     :     0.020486
      dx2y2   :     0.026263
      dxy     :     0.028894

  4 N s       :     3.087212  s :     3.087212
      pz      :     1.185369  p :     3.798369
      px      :     1.224554
      py      :     1.388446
      dz2     :     0.022276  d :     0.085036
      dxz     :     0.023730
      dyz     :     0.015193
      dx2y2   :     0.011801
      dxy     :     0.012037

  5 N s       :     3.253981  s :     3.253981
      pz      :     1.441571  p :     3.842011
      px      :     1.164321
      py      :     1.236119
      dz2     :     0.008619  d :     0.075642
      dxz     :     0.024955
      dyz     :     0.014436
      dx2y2   :     0.015531
      dxy     :     0.012101

  6 C s       :     2.885242  s :     2.885242
      pz      :     1.019037  p :     3.010279
      px      :     1.017769
      py      :     0.973473
      dz2     :     0.041272  d :     0.201829
      dxz     :     0.048521
      dyz     :     0.024270
      dx2y2   :     0.046909
      dxy     :     0.040857

  7 N s       :     3.014106  s :     3.014106
      pz      :     1.221331  p :     3.950685
      px      :     1.247039
      py      :     1.482315
      dz2     :     0.009215  d :     0.040086
      dxz     :     0.011676
      dyz     :     0.005953
      dx2y2   :     0.006345
      dxy     :     0.006898

  8 S s       :     5.523146  s :     5.523146
      pz      :     3.216740  p :     9.955761
      px      :     3.283309
      py      :     3.455712
      dz2     :     0.048932  d :     0.127338
      dxz     :     0.014922
      dyz     :     0.019080
      dx2y2   :     0.019773
      dxy     :     0.024630

  9 C s       :     2.995689  s :     2.995689
      pz      :     1.047771  p :     3.099282
      px      :     1.032158
      py      :     1.019354
      dz2     :     0.053224  d :     0.152001
      dxz     :     0.033555
      dyz     :     0.026679
      dx2y2   :     0.017412
      dxy     :     0.021131

 10 S s       :     5.665068  s :     5.665068
      pz      :     3.355822  p :    10.488865
      px      :     3.663260
      py      :     3.469784
      dz2     :     0.015317  d :     0.076142
      dxz     :     0.020178
      dyz     :     0.026470
      dx2y2   :     0.005875
      dxy     :     0.008302

 11 C s       :     2.862780  s :     2.862780
      pz      :     1.004824  p :     2.929233
      px      :     1.031844
      py      :     0.892564
      dz2     :     0.031962  d :     0.149500
      dxz     :     0.013795
      dyz     :     0.034847
      dx2y2   :     0.031368
      dxy     :     0.037528

 12 O s       :     3.493204  s :     3.493204
      pz      :     1.301238  p :     4.651849
      px      :     1.776134
      py      :     1.574477
      dz2     :     0.005662  d :     0.029159
      dxz     :     0.005110
      dyz     :     0.010573
      dx2y2   :     0.004558
      dxy     :     0.003256

 13 C s       :     2.872456  s :     2.872456
      pz      :     0.899062  p :     2.784266
      px      :     0.896267
      py      :     0.988937
      dz2     :     0.034843  d :     0.202227
      dxz     :     0.042203
      dyz     :     0.044694
      dx2y2   :     0.030595
      dxy     :     0.049892

 14 O s       :     3.492631  s :     3.492631
      pz      :     1.405456  p :     4.681537
      px      :     1.590287
      py      :     1.685794
      dz2     :     0.010121  d :     0.027380
      dxz     :     0.004525
      dyz     :     0.003281
      dx2y2   :     0.003224
      dxy     :     0.006229

 15 C s       :     2.849796  s :     2.849796
      pz      :     0.803041  p :     2.929651
      px      :     1.042622
      py      :     1.083987
      dz2     :     0.045171  d :     0.134815
      dxz     :     0.027254
      dyz     :     0.026191
      dx2y2   :     0.021104
      dxy     :     0.015096

 16 H s       :     0.855749  s :     0.855749
      pz      :     0.013829  p :     0.070937
      px      :     0.027216
      py      :     0.029892

 17 H s       :     0.876893  s :     0.876893
      pz      :     0.014090  p :     0.069346
      px      :     0.038176
      py      :     0.017079

 18 H s       :     0.884629  s :     0.884629
      pz      :     0.022908  p :     0.071944
      px      :     0.011061
      py      :     0.037975

 19 H s       :     0.765128  s :     0.765128
      pz      :     0.067442  p :     0.125862
      px      :     0.020788
      py      :     0.037631

 20 H s       :     0.765139  s :     0.765139
      pz      :     0.031965  p :     0.126686
      px      :     0.058544
      py      :     0.036177

 21 H s       :     0.886083  s :     0.886083
      pz      :     0.043905  p :     0.068244
      px      :     0.012573
      py      :     0.011766

 22 H s       :     0.898412  s :     0.898412
      pz      :     0.023591  p :     0.066935
      px      :     0.011114
      py      :     0.032230

 23 H s       :     0.894944  s :     0.894944
      pz      :     0.009493  p :     0.067127
      px      :     0.014451
      py      :     0.043182

 24 H s       :     0.900112  s :     0.900112
      pz      :     0.015411  p :     0.066708
      px      :     0.027870
      py      :     0.023427



                      *****************************
                      * MAYER POPULATION ANALYSIS *
                      *****************************

  NA   - Mulliken gross atomic population
  ZA   - Total nuclear charge
  QA   - Mulliken gross atomic charge
  VA   - Mayer's total valence
  BVA  - Mayer's bonded valence
  FA   - Mayer's free valence

  ATOM       NA         ZA         QA         VA         BVA        FA
  0 O      8.2555     8.0000    -0.2555     2.2349     2.2349    -0.0000
  1 C      5.8947     6.0000     0.1053     4.1247     4.1247     0.0000
  2 C      5.9883     6.0000     0.0117     3.8836     3.8836     0.0000
  3 C      5.9059     6.0000     0.0941     3.8784     3.8784     0.0000
  4 N      7.2099     7.0000    -0.2099     3.3285     3.3285     0.0000
  5 N      7.1021     7.0000    -0.1021     2.8940     2.8940    -0.0000
  6 C      6.0174     6.0000    -0.0174     4.1944     4.1944     0.0000
  7 N      7.1035     7.0000    -0.1035     3.3069     3.3069    -0.0000
  8 S     15.8901    16.0000     0.1099     2.3708     2.3708     0.0000
  9 C      5.9346     6.0000     0.0654     3.8201     3.8201     0.0000
 10 S     16.3552    16.0000    -0.3552     1.8005     1.8005    -0.0000
 11 C      5.9819     6.0000     0.0181     3.9827     3.9827    -0.0000
 12 O      8.3935     8.0000    -0.3935     2.0174     2.0174    -0.0000
 13 C      5.7019     6.0000     0.2981     3.8640     3.8640    -0.0000
 14 O      8.4324     8.0000    -0.4324     2.0156     2.0156    -0.0000
 15 C      5.7331     6.0000     0.2669     3.8844     3.8844    -0.0000
 16 H      0.8855     1.0000     0.1145     0.9912     0.9912     0.0000
 17 H      0.9225     1.0000     0.0775     1.0187     1.0187    -0.0000
 18 H      0.9291     1.0000     0.0709     1.0172     1.0172     0.0000
 19 H      0.8175     1.0000     0.1825     0.9893     0.9893    -0.0000
 20 H      0.8138     1.0000     0.1862     0.9767     0.9767    -0.0000
 21 H      0.9274     1.0000     0.0726     1.0049     1.0049    -0.0000
 22 H      0.9386     1.0000     0.0614     1.0084     1.0084    -0.0000
 23 H      0.9313     1.0000     0.0687     0.9889     0.9889    -0.0000
 24 H      0.9343     1.0000     0.0657     0.9838     0.9838     0.0000

  Mayer bond orders larger than 0.100000
B(  0-O ,  1-C ) :   2.1485 B(  1-C ,  2-C ) :   0.9701 B(  1-C , 13-C ) :   0.8971 
B(  2-C ,  3-C ) :   1.0459 B(  2-C , 16-H ) :   0.9118 B(  2-C , 17-H ) :   0.9327 
B(  3-C ,  4-N ) :   0.9023 B(  3-C , 11-C ) :   0.9647 B(  3-C , 18-H ) :   0.9159 
B(  4-N ,  5-N ) :   1.0189 B(  4-N ,  9-C ) :   1.2206 B(  4-N , 10-S ) :   0.1090 
B(  5-N ,  6-C ) :   1.6525 B(  6-C ,  7-N ) :   1.3353 B(  6-C ,  8-S ) :   1.0670 
B(  7-N , 19-H ) :   0.9355 B(  7-N , 20-H ) :   0.9189 B(  8-S ,  9-C ) :   1.0821 
B(  9-C , 10-S ) :   1.4762 B( 11-C , 12-O ) :   0.9291 B( 11-C , 15-C ) :   1.0499 
B( 11-C , 21-H ) :   0.9325 B( 12-O , 13-C ) :   0.9880 B( 13-C , 14-O ) :   0.9882 
B( 13-C , 22-H ) :   0.9424 B( 14-O , 15-C ) :   0.9236 B( 15-C , 23-H ) :   0.9488 
B( 15-C , 24-H ) :   0.9507 

-------
TIMINGS
-------

Total SCF time: 0 days 0 hours 0 min 29 sec 

Total time                  ....      29.675 sec
Sum of individual times     ....      28.496 sec  ( 96.0%)

SCF preparation             ....       0.564 sec  (  1.9%)
[...]

  9 C s       :     2.979761  s :     2.979761
      pz      :     1.057542  p :     3.112977
      px      :     1.034087
      py      :     1.021348
      dz2     :     0.057227  d :     0.161434
      dxz     :     0.034590
      dyz     :     0.029429
      dx2y2   :     0.018161
      dxy     :     0.022028

 10 S s       :     5.663874  s :     5.663874
      pz      :     3.372071  p :    10.496095
      px      :     3.648740
      py      :     3.475285
      dz2     :     0.013876  d :     0.075968
      dxz     :     0.020682
      dyz     :     0.026371
      dx2y2   :     0.005986
      dxy     :     0.009052

 11 C s       :     2.859176  s :     2.859176
      pz      :     1.014600  p :     2.934124
      px      :     1.026133
      py      :     0.893392
      dz2     :     0.032535  d :     0.153375
      dxz     :     0.014785
      dyz     :     0.034390
      dx2y2   :     0.032041
      dxy     :     0.039624

 12 O s       :     3.471694  s :     3.471694
      pz      :     1.303606  p :     4.653591
      px      :     1.778036
      py      :     1.571949
      dz2     :     0.007197  d :     0.031296
      dxz     :     0.005498
      dyz     :     0.010394
      dx2y2   :     0.004815
      dxy     :     0.003392

 13 C s       :     2.864113  s :     2.864113
      pz      :     0.904151  p :     2.801271
      px      :     0.884514
      py      :     1.012606
      dz2     :     0.042158  d :     0.219743
      dxz     :     0.045701
      dyz     :     0.045924
      dx2y2   :     0.035433
      dxy     :     0.050527

 14 O s       :     3.471187  s :     3.471187
      pz      :     1.454560  p :     4.685410
      px      :     1.551914
      py      :     1.678936
      dz2     :     0.009536  d :     0.028980
      dxz     :     0.004546
      dyz     :     0.004020
      dx2y2   :     0.004716
      dxy     :     0.006162

 15 C s       :     2.852401  s :     2.852401
      pz      :     0.827926  p :     2.929257
      px      :     1.045619
      py      :     1.055711
      dz2     :     0.040784  d :     0.134425
      dxz     :     0.029172
      dyz     :     0.026997
      dx2y2   :     0.026292
      dxy     :     0.011179

 16 H s       :     0.855522  s :     0.855522
      pz      :     0.013878  p :     0.070186
      px      :     0.027775
      py      :     0.028533

 17 H s       :     0.877775  s :     0.877775
      pz      :     0.013989  p :     0.068963
      px      :     0.036615
      py      :     0.018359

 18 H s       :     0.887345  s :     0.887345
      pz      :     0.025581  p :     0.073083
      px      :     0.010588
      py      :     0.036915

 19 H s       :     0.764394  s :     0.764394
      pz      :     0.070570  p :     0.123849
      px      :     0.018551
      py      :     0.034728

 20 H s       :     0.764379  s :     0.764379
      pz      :     0.025163  p :     0.124802
      px      :     0.064868
      py      :     0.034772

 21 H s       :     0.890938  s :     0.890938
      pz      :     0.043941  p :     0.067688
      px      :     0.012342
      py      :     0.011404

 22 H s       :     0.901435  s :     0.901435
      pz      :     0.021034  p :     0.064782
      px      :     0.009008
      py      :     0.034739

 23 H s       :     0.898323  s :     0.898323
      pz      :     0.008088  p :     0.066386
      px      :     0.013269
      py      :     0.045028

 24 H s       :     0.898974  s :     0.898974
      pz      :     0.018803  p :     0.065966
      px      :     0.029401
      py      :     0.017762



                      *****************************
                      * MAYER POPULATION ANALYSIS *
                      *****************************

  NA   - Mulliken gross atomic population
  ZA   - Total nuclear charge
  QA   - Mulliken gross atomic charge
  VA   - Mayer's total valence
  BVA  - Mayer's bonded valence
  FA   - Mayer's free valence

  ATOM       NA         ZA         QA         VA         BVA        FA
  0 O      8.2310     8.0000    -0.2310     2.2626     2.2626    -0.0000
  1 C      5.8937     6.0000     0.1063     4.1569     4.1569     0.0000
  2 C      6.0013     6.0000    -0.0013     3.8844     3.8844     0.0000
  3 C      5.9185     6.0000     0.0815     3.8762     3.8762     0.0000
  4 N      7.1791     7.0000    -0.1791     3.3692     3.3692     0.0000
  5 N      7.1041     7.0000    -0.1041     2.8892     2.8892    -0.0000
  6 C      6.0057     6.0000    -0.0057     4.1698     4.1698    -0.0000
  7 N      7.1093     7.0000    -0.1093     3.2996     3.2996    -0.0000
  8 S     15.9009    16.0000     0.0991     2.3658     2.3658    -0.0000
  9 C      5.9435     6.0000     0.0565     3.8249     3.8249     0.0000
 10 S     16.3648    16.0000    -0.3648     1.7895     1.7895    -0.0000
 11 C      5.9918     6.0000     0.0082     3.9863     3.9863     0.0000
 12 O      8.3771     8.0000    -0.3771     2.0347     2.0347     0.0000
 13 C      5.7227     6.0000     0.2773     3.8864     3.8864    -0.0000
 14 O      8.4195     8.0000    -0.4195     2.0369     2.0369    -0.0000
 15 C      5.7365     6.0000     0.2635     3.8975     3.8975     0.0000
 16 H      0.8854     1.0000     0.1146     0.9902     0.9902     0.0000
 17 H      0.9227     1.0000     0.0773     1.0162     1.0162    -0.0000
 18 H      0.9282     1.0000     0.0718     1.0250     1.0250     0.0000
 19 H      0.8148     1.0000     0.1852     0.9886     0.9886    -0.0000
 20 H      0.8100     1.0000     0.1900     0.9751     0.9751    -0.0000
 21 H      0.9337     1.0000     0.0663     1.0072     1.0072    -0.0000
 22 H      0.9423     1.0000     0.0577     1.0070     1.0070    -0.0000
 23 H      0.9322     1.0000     0.0678     0.9870     0.9870     0.0000
 24 H      0.9311     1.0000     0.0689     0.9820     0.9820     0.0000

  Mayer bond orders larger than 0.100000
B(  0-O ,  1-C ) :   2.1731 B(  1-C ,  2-C ) :   0.9717 B(  1-C , 13-C ) :   0.8969 
B(  2-C ,  3-C ) :   1.0437 B(  2-C , 16-H ) :   0.9074 B(  2-C , 17-H ) :   0.9333 
B(  3-C ,  4-N ) :   0.9064 B(  3-C , 11-C ) :   0.9676 B(  3-C , 18-H ) :   0.9088 
B(  4-N ,  5-N ) :   1.0312 B(  4-N ,  9-C ) :   1.2620 B(  4-N , 10-S ) :   0.1009 
B(  5-N ,  6-C ) :   1.6344 B(  6-C ,  7-N ) :   1.3300 B(  6-C ,  8-S ) :   1.0684 
B(  7-N , 19-H ) :   0.9319 B(  7-N , 20-H ) :   0.9215 B(  8-S ,  9-C ) :   1.0679 
B(  9-C , 10-S ) :   1.4559 B( 11-C , 12-O ) :   0.9437 B( 11-C , 15-C ) :   1.0472 
B( 11-C , 21-H ) :   0.9315 B( 12-O , 13-C ) :   1.0023 B( 13-C , 14-O ) :   0.9992 
B( 13-C , 22-H ) :   0.9392 B( 14-O , 15-C ) :   0.9364 B( 15-C , 23-H ) :   0.9506 
B( 15-C , 24-H ) :   0.9475 

-------
TIMINGS
-------

Total SCF time: 0 days 0 hours 0 min 15 sec 

Total time                  ....      15.759 sec
Sum of individual times     ....      14.706 sec  ( 93.3%)

SCF preparation             ....       0.640 sec  (  4.1%)
Fock matrix formation       ....      13.697 sec  ( 86.9%)
  Startup                   ....       0.004 sec  (  0.0% of F)
  Split-RI-J                ....       0.555 sec  (  4.0% of F)
  Chain of spheres X        ....      12.227 sec  ( 89.3% of F)
  XC integration            ....       0.973 sec  (  7.1% of F)
    Basis function eval.    ....       0.353 sec  ( 36.3% of XC)
    Density eval.           ....       0.226 sec  ( 23.3% of XC)
    XC-Functional eval.     ....       0.067 sec  (  6.9% of XC)
    XC-Potential eval.      ....       0.159 sec  ( 16.3% of XC)
  CPCM terms                ....       0.866 sec  (  6.3% of F)
Diagonalization             ....       0.000 sec  (  0.0%)
Density matrix formation    ....       0.014 sec  (  0.1%)
Total Energy calculation    ....       0.010 sec  (  0.1%)
Population analysis         ....       0.245 sec  (  1.6%)
Orbital Transformation      ....       0.014 sec  (  0.1%)
Orbital Orthonormalization  ....       0.000 sec  (  0.0%)
DIIS solution               ....       0.018 sec  (  0.1%)
SOSCF solution              ....       0.068 sec  (  0.4%)
Finished LeanSCF after  16.2 sec

Maximum memory used throughout the entire LEANSCF-calculation: 29.1 MB


-------------------------------------------------------------------------------
                          DFT DISPERSION CORRECTION                            
                                                                               
                              DFTD3 V3.1  Rev 1                                
                              USING zero damping                               
-------------------------------------------------------------------------------
The omegaB97X-D3 functional is recognized. Fit by Chai et al.
Active option DFTDOPT                   ...         3   

molecular C6(AA) [au] = 9333.125922 


            DFT-D V3
 parameters
 s6 scaling factor         :     1.0000 
 rs6 scaling factor        :     1.2810 
 s8 scaling factor         :     1.0000 
 rs8 scaling factor        :     1.0940 
 Damping factor alpha6     :    14.0000 
 Damping factor alpha8     :    16.0000 
 ad hoc parameters k1-k3   :    16.0000     1.3333    -4.0000 

 Edisp/kcal,au: -7.947869050156  -0.012665734193 
 E6   /kcal   :  -3.417243865 
 E8   /kcal   :  -4.530625185 
 % E8         :  57.004275691 

-------------------------   ----------------
Dispersion correction           -0.012665734
-------------------------   ----------------


-------------------------   --------------------
FINAL SINGLE POINT ENERGY     -1495.623146530356
-------------------------   --------------------

                                *** OPTIMIZATION RUN DONE ***



           ************************************************************
           *        Program running with 8 parallel MPI-processes     *
           *              working on a common directory               *
           ************************************************************

------------------------------------------------------------------------------
                              ORCA PROPERTY CALCULATIONS
------------------------------------------------------------------------------

GBWName                                 ... compound_11_wb97xd3_def2svp_cpcm_water_opt.gbw
Number of atoms                         ...     25
Number of basis functions               ...    277
Max core memory                         ...   3000 MB

Electric properties:
Dipole moment                           ... YES
Quadrupole moment                       ...  NO
Static polarizability (Dipole/Dipole)   ...  NO
Static polarizability (Dipole/Quad.)    ...  NO
Static polarizability (Quad./Quad.)     ...  NO
Static polarizability (Velocity)        ...  NO
Static hyperpolarizability              ...  NO

Atomic electric properties:
Dipole moment                           ...  NO
Quadrupole moment                       ...  NO
Static polarizability                   ...  NO

Choice of electric origin               ... Center of mass
Position of electric origin             ...     0.726308    -0.015522    -0.817824

General magnetic properties:
Magnetizability                         ...  NO

EPR properties:
g-Tensor (aka g-matrix)                 ...  NO
Zero-Field splitting spin-orbit         ...  NO
Zero-field splitting spin-spin          ...  NO
Hyperfine couplings                     ...  NO (   0 nuclei)
Quadrupole couplings                    ...  NO (   0 nuclei)
Contact density                         ...  NO (   0 nuclei)

NMR properties:
Chemical shifts                         ...  NO (   0 nuclei)
Spin-rotation constants                 ...  NO (   0 nuclei)
Spin-spin couplings                     ...  NO (   0 nuclei,    0 pairs)

Choice of magnetic origin               ... GIAO
Position of magnetic origin             ...     0.000000     0.000000     0.000000

Properties with geometric perturbations:
SCF Hessian                             ...  NO
IR spectrum                             ...  NO
VCD spectrum                            ...  NO
X-ray spectroscopy properties:
SCF XES/XAS/RIXS spectra                ...  NO

SCF SOC stabilization energy            ...  NO
Diagonal Born-Oppenheimer correction    ...  NO

-------------
DIPOLE MOMENT
-------------

Method             : SCF
Type of density    : Electron Density
Multiplicity       :   1
Irrep              :   0
Energy             : -1495.6104807961623919 Eh
Basis              : AO
                                X                 Y                 Z
Electronic contribution:      7.311860667       1.255081760      -4.890059821
Nuclear contribution   :     -5.884733841      -0.800692410       5.349709081
                        -----------------------------------------
Total Dipole Moment    :      1.427126825       0.454389350       0.459649260
                        -----------------------------------------
Magnitude (a.u.)       :      1.566664642
Magnitude (Debye)      :      3.982145053



--------------------
Rotational spectrum 
--------------------
 
Rotational constants in cm-1:             0.023777             0.011807             0.008932 
Rotational constants in MHz :           712.807010           353.974092           267.788216 

Dipole components along the rotational axes: 
x,y,z [a.u.] :     0.826082     1.329963    -0.056798 
x,y,z [Debye]:     2.099732     3.380497    -0.144369 

 

Dipole moment calculation done in   0.1 sec 

Maximum memory used throughout the entire PROP-calculation: 15.7 MB

--------------------------------
SUGGESTED CITATIONS FOR THIS RUN
--------------------------------

Below you find a list of papers that are relevant to this ORCA run
We neither can nor want to force you to cite these papers, but we appreciate if you do
You receive ORCA, which is the product of decades of hard work by many enthusiastic individuals, for free
The only thing we kindly ask in return is that you cite our papers,
We deeply appreciate it, if you show your appreciation for ORCA by not just citing the generic ORCA reference.

Please note that relegating all ORCA citations to the supporting information does *not* help us.
SI sections are not indexed - citations you put there will not count into any citation statistics
But we need these citations in order to attract the funding resources that allow us to do what we are doing

Therefore, if you are a happy ORCA user, please consider citing a few of the papers listed below in the main body of your paper

In addition to the list printed below, the program has created the file compound_11_wb97xd3_def2svp_cpcm_water_opt.bibtex that contains the list in bibtex format
You can import this file easily into all common literature databanks and citation aid programs

It goes without saying that in many instances, there are alternative algorithms to achieve similar
results as the ones you have gotten from ORCA. It is, of course, also the case that in some instances
ORCA just re-implements algorithms worked out by others. We are fully aware of that and we are also
fully appreciative of our colleagues work. Hence this citation list should not be read as indicating
that the listed papers, which are focused on our own work, are the only ones worth citing. It simply
meant to make it easier for users to cite ORCA specific papers. It is not a substitute for doing your
own literature research and citing the relevant literature in a scientifically appropriate manner.

List of essential papers. We consider these as the minimum necessary citations

  1. Neese, F.
     Software update: the ORCA program system, version 6.0
     WIRES Comput. Molec. Sci. 2025 15(1), e70019
     doi.org/10.1002/wcms.70019

List of papers to cite with high priority. The work reported in these papers was absolutely
necessary for this run to complete.
Our perspective: the developers of density functionals and basis sets usually get cited in chemistry papers
Good! But without the algorithms to do something with them, the functionals or basis sets would not do anything.
Hence, in our opinion, the algorithm design and method developments papers are equally worthy of getting cited

  1. Neese, F.
     An improvement of the resolution of the identity approximation for the formation of the Coulomb matrix
     J. Comp. Chem. 2003 24(14), 1740-1747
     doi.org/10.1002/jcc.10318
  2. Neese, F.; Wennmohs, F.; Hansen, A.; Becker, U.
     Efficient, approximate and parallel Hartree-Fock and hybrid DFT calculations. A 'chain-of-spheres' algorithm for the Hartree-Fock exchange
     Chem. Phys. 2009 356(1-3), 98-109
     doi.org/10.1016/j.chemphys.2008.10.036
  3. Grimme, S.; Antony, J.; Ehrlich, S.; Krieg, H.
     A consistent and accurate ab initio parametrization of density functional dispersion correction (DFT-D) for the 94 elements H-Pu
     J. Chem. Phys. 2010 132 , 154104
     doi.org/10.1063/1.3382344
  4. Bykov, D.; Petrenko, T.; Izsak, R.; Kossmann, S.; Becker, U.; Valeev, E.; Neese, F.
     Efficient implementation of the analytic second derivatives of Hartree-Fock and hybrid DFT energies: a detailed analysis of different approximations
     Molec. Phys. 2015 113 , 1961-1977
     doi.org/10.1080/00268976.2015.1025114
  5. Garcia-Rates, M.; Neese, F.
     Effect of the Solute Cavity on the Solvation Energy and its Derivatives within the Framework of the Gaussian Charge Scheme
     J. Comput. Chem. 2020 41 , 922-939
     doi.org/10.1002/jcc.26139
  6. Helmich-Paris, B.; de Souza, B.; Neese, F.; Izsák, R.
     An improved chain of spheres for exchange algorithm
     J. Chem. Phys. 2021 155(10), 104109
     doi.org/10.1063/5.0058766
  7. Neese, F.
     The SHARK Integral Generation and Digestion System
     J. Comp. Chem. 2022 44(3), 381
     doi.org/10.1002/jcc.26942

List of suggested additional citations. These are papers that are important in the 'surrounding' of 
of this run, or papers that preceded the highly important papers. If you like your results we are grateful for a citation.

  1. Izsak, R.; Neese, F.
     An overlap fitted chain of spheres exchange method
     J. Chem. Phys. 2011 135 , 144105
     doi.org/10.1063/1.3646921
  2. Izsak, R.; Hansen, A.; Neese, F.
     The resolution of identity and chain of spheres approximations for the LPNO-CCSD singles Fock term
     Molec. Phys. 2012 110 , 2413-2417
     doi.org/10.1080/00268976.2012.687466
  3. Neese, F.
     The ORCA program system
     WIRES Comput. Molec. Sci. 2012 2(1), 73-78
     doi.org/10.1002/wcms.81
  4. Izsak, R.; Neese, F.; Klopper, W.
     Robust fitting techniques in the chain of spheres approximation to the Fock exchange: The role of the complementary space
     J. Chem. Phys. 2013 139 , 
     doi.org/10.1063/1.4819264
  5. Neese, F.
     Software update: the ORCA program system, version 4.0
     WIRES Comput. Molec. Sci. 2018 8(1), 1-6
     doi.org/10.1002/wcms.1327
  6. Neese, F.; Wennmohs, F.; Becker, U.; Riplinger, C.
     The ORCA quantum chemistry program package
     J. Chem. Phys. 2020 152(22), 224108
     doi.org/10.1063/5.0004608
  7. Neese, F.
     Software update: The ORCA program system—Version 5.0
     WIRES Comput. Molec. Sci. 2022 12(1), e1606
     doi.org/10.1002/wcms.1606

List of optional additional citations

  1. Neese, F.
     Approximate second-order SCF convergence for spin unrestricted wavefunctions
     Chem. Phys. Lett. 2000 325(1-3), 93-98
     doi.org/10.1016/s0009-2614(00)00662-x

Timings for individual modules:

Sum of individual times          ...      861.893 sec (=  14.365 min)
Startup calculation              ...       40.627 sec (=   0.677 min)   4.7 %
SCF iterations                   ...      562.620 sec (=   9.377 min)  65.3 %
Property calculations            ...        0.656 sec (=   0.011 min)   0.1 %
SCF Gradient evaluation          ...      257.570 sec (=   4.293 min)  29.9 %
Geometry relaxation              ...        0.421 sec (=   0.007 min)   0.0 %
                             ****ORCA TERMINATED NORMALLY****
TOTAL RUN TIME: 0 days 0 hours 27 minutes 1 seconds 133 msec
