
                                 *****************
                                 * O   R   C   A *
                                 *****************

                                            #,                                       
                                            ###                                      
                                            ####                                     
                                            #####                                    
                                            ######                                   
                                           ########,                                 
                                     ,,################,,,,,                         
                               ,,#################################,,                 
                          ,,##########################################,,             
                       ,#########################################, ''#####,          
                    ,#############################################,,   '####,        
                  ,##################################################,,,,####,       
                ,###########''''           ''''###############################       
              ,#####''   ,,,,##########,,,,          '''####'''          '####       
            ,##' ,,,,###########################,,,                        '##       
           ' ,,###''''                  '''############,,,                           
         ,,##''                                '''############,,,,        ,,,,,,###''
      ,#''                                            '''#######################'''  
     '                                                          ''''####''''         
             ,#######,   #######,   ,#######,      ##                                
            ,#'     '#,  ##    ##  ,#'     '#,    #''#        ,####,    ,#,          
            ##       ##  ##   ,#'  ##            #'  '#       #'       ,# #          
            ##       ##  #######   ##           ,######,      #####,      #          
            '#,     ,#'  ##    ##  '#,     ,#' ,#      #,     #,   #      #          
             '#######'   ##     ##  '#######'  #'      '#     '####' #    #          



                #########################################################
                #                        -***-                          #
                #          Department of theory and spectroscopy        #
                #                                                       #
                #                      Frank Neese                      #
                #                                                       #
                #     Directorship, Architecture, Infrastructure        #
                #                    SHARK, DRIVERS                     #
                #        Core code/Algorithms in most modules           #
                #                                                       #
                #        Max Planck Institute fuer Kohlenforschung      #
                #                Kaiser Wilhelm Platz 1                 #
                #                 D-45470 Muelheim/Ruhr                 #
                #                      Germany                          #
                #                                                       #
                #                  All rights reserved                  #
                #                        -***-                          #
                #########################################################


                         Program Version 6.1.1  -  RELEASE   -
                                (GIT: $487d211c$)
                          ($2025-11-21 10:33:24 +0100$)


 With contributions from (in alphabetic order):
[Max-Planck-Institut fuer Kohlenforschung]                               
  Daniel Aravena         : Magnetic Suceptibility                        
  Michael Atanasov       : Ab Initio Ligand Field Theory (pilot matlab implementation)
  Alexander A. Auer      : GIAO ZORA, VPT2 properties, NMR spectrum      
  Ute Becker             : All parallelization in ORCA, NUMFREQ, NUMCALC 
  Giovanni Bistoni       : ED, misc. LED, open-shell LED, HFLD           
  Dmytro Bykov           : pre 5.0 version of the SCF Hessian            
  Marcos Casanova-Páez   : Triplet and SCS-CIS(D). UHF-(DLPNO)-IP/EA/STEOM-CCSD. UHF-CVS-IP/STEOM-CCSD   
  Vijay G. Chilkuri      : MRCI spin determinant printing, contributions to CSF-ICE 
  Pauline Colinet        : FMM embedding                                 
  Dipayan Datta          : RHF DLPNO-CCSD density                        
  Achintya Kumar Dutta   : EOM-CC, STEOM-CC                              
  Nicolas Foglia         : Exact transition moments, OPA infrastructure, MCD improvements    
  Dmitry Ganyushin       : Spin-Orbit,Spin-Spin,Magnetic field MRCI      
  Miquel Garcia-Rates    : C-PCM and meta-GGA Hessian, CCSD/C-PCM, Gaussian charge scheme 
  Tiago L. C. Gouveia    : GS-ROHF, GS-ROCIS                             
  Yang Guo               : DLPNO-NEVPT2, F12-NEVPT2, CIM, IAO-localization        
  Andreas Hansen         : Spin unrestricted coupled pair/coupled cluster methods 
  Ingolf Harden          : AUTO-CI MPn and infrastructure                
  Benjamin Helmich-Paris : MC-RPA, TRAH-(SCF,CASSCF), AVAS, COSX integrals, SCF dyn. polar., MC-PDFT, srDFT 
  Lee Huntington         : MR-EOM, pCC                                   
  Robert Izsak           : Overlap fitted RIJCOSX, COSX-SCS-MP3, EOM     
  Riya Kayal             : Wick's Theorem for AUTO-CI, AUTO-CI UHF-CCSDT 
  Emily Kempfer          : AUTO-CI RHF CISDT and CCSDT, approximate NEVPT4
  Christian Kollmar      : KDIIS, OOCD, Brueckner-CCSD(T), CCSD density, CASPT2, CASPT2-K, improved NEVPT2 
  Axel Koslowski         : Symmetry handling                             
  Simone Kossmann        : meta-GGA functionals, TD-DFT gradient, OOMP2, (MP2 Hessian; deprecated post 5.0) 
  Lucas Lang             : DCDCAS, Hyperfine gauge corrections, ICE-SOC+SSC
  Marvin Lechner         : AUTO-CI (C++ implementation), FIC-MRCC        
  Spencer Leger          : CASSCF response                               
  Dagmar Lenk            : GEPOL surface, SMD, ORCA-2-JSON               
  Dimitrios Liakos       : Extrapolation schemes; Compound Job, Property file
  Dimitrios Manganas     : Further ROCIS development; embedding schemes. LFT, Crystal Embedding 
  Dimitrios Pantazis     : SARC Basis sets                               
  Anastasios Papadopoulos: AUTO-CI, single reference methods and gradients 
  Taras Petrenko         : pre 6.0 DFT Hessian and TD-DFT gradient,  ECA, NRVS 
  Petra Pikulova         : Analytic Raman intensities                    
  Peter Pinski           : DLPNO-MP2, DLPNO-MP2 Gradient                 
  Shashank Vittal Rao    : ES-AILFT, MagRelax                            
  Christoph Reimann      : Effective Core Potentials                     
  Marius Retegan         : Local ZFS, SOC                                
  Christoph Riplinger    : Optimizer, TS searches, QM/MM, DLPNO-CCSD(T), (RO)-DLPNO pert. Triples 
  Michael Roemelt        : Original ROCIS implementation, recursive CI coupling coefficients
  Masaaki Saitow         : Open-shell DLPNO-CCSD energy and density      
  Barbara Sandhoefer     : DKH picture change effects                    
  Yorick L. A. Schmerwitz: GMF and freeze-and-release deltaSCF, NEB S-IDPP initial path                    
  Kantharuban Sivalingam : CASSCF convergence/infrastructure, NEVPT2, NEVPT3, NEVPT4(SD), FIC-MRCI and CEPA variants
  Bernardo de Souza      : ESD, SOC TD-DFT                               
  Georgi L. Stoychev     : AutoAux, RI-MP2 NMR, DLPNO-MP2 response, X2C  
  Van Anh Tran           : RI-MP2 g-tensors                              
  Willem Van den Heuvel  : Paramagnetic NMR                              
  Zikuan Wang            : NOTCH, Electric field optimization            
  Frank Wennmohs         : Technical directorship and infrastructure     
  Hang Xu                : AUTO-CI-Response properties                   
                                                                         
[FACCTs GmbH]                                                            
  Markus Bursch, Nicolas Foglia, Miquel Garcia-Rates, Ingolf Harden, Hagen Neugebauer, Anastasios Papadopoulos, 
  Christoph Riplinger, Bernardo de Souza, Georgi L. Stoychev                                                    
                                                                 
  APM, various basis sets, CI-OPT, improved COSX, DLPNO-Multilevel,           
  DOCKER, DRACO, updates on ESD, Fragmentator, GOAT, IRC, LR-CPCM, L-BFGS, MBIS, meta-GGA TD-DFT gradient, ML-optimized integration grids, 
  MM, NACMEs, nearIR, NEB, NEB-TS, NL-DFT gradient (VV10), 2- and 3-layer-ONIOM, interface openCOSMO-RS, QMMM,   
  Crystal-QMMM, RESP, rigid body optimization, SF, symmetry and pop. for TD-DFT, various functionals, SOLVATOR                                   
                                                                         
[Other institutions]                                                     
  V. Asgeirsson          : NEB                                           
  Christoph Bannwarth    : sTDA-DFT, sTD-DFT, PBEh-3c, B97-3c, D3        
  Giovanni Bistoni       : ETS/NOCV, ADLD/ADEX, COVALED                  
  Martin Brehm           : Molecular dynamics                            
  Ronald Cardenas        : ETS/NOCV                                      
  Martina Colucci        : COVALED                                       
  Sebastian Ehlert       : rSCAN, r2SCAN, r2SCAN-3c, D4, dhf basis sets  
  Marvin Friede          : D4 for Fr, Ra, Ac-Lr                          
  Lars Goerigk           : TD-DFT with DH, B97 family of functionals     
  Stefan Grimme          : VdW corrections, initial TS optimization, DFT functionals, gCP, sTDA/sTD-DF 
  Waldemar Hujo          : DFT-NL                                        
  H. Jonsson             : NEB                                           
  Holger Kruse           : gCP                                           
  Marcel Mueller         : wB97X-3c, vDZP basis set                      
  Hagen Neugebauer       : wr2SCAN, Native XTB                           
  Gianluca Regni         : ADLD/ADEX                                     
  Tobias Risthaus        : pre 6.0 range-separated hybrid DFT and stability analysis
  Lukas Wittmann         : regularized MP2, r2SCAN double-hybrids, wr2SCAN        
                                                                         
We gratefully acknowledge several colleagues who have allowed us to      
interface, adapt or use parts of their codes:                            
  Ed Valeev, F. Pavosevic, A. Kumar             : LibInt (2-el integral package), F12 methods 
  Garnet Chan, S. Sharma, J. Yang, R. Olivares  : DMRG                   
  Ulf Ekstrom                                   : XCFun DFT Library      
  Mihaly Kallay                                 : mrcc  (arbitrary order and MRCC methods)
  Frank Weinhold                                : gennbo (NPA and NBO analysis)           
  Simon Mueller                                 : openCOSMO-RS                            
  Christopher J. Cramer and Donald G. Truhlar   : smd solvation model                     
  S Lehtola, MJT Oliveira, MAL Marques          : LibXC Library                           
  Liviu Ungur et al                             : ANISO software                          


 Your calculation uses the libint2 library for the computation of 2-el integrals
 For citations please refer to: http://libint.valeyev.net

 Your ORCA version has been built with support for libXC version: 7.0.0
 For citations please refer to: https://libxc.gitlab.io

 This ORCA versions uses:
   CBLAS   interface :  Fast vector & matrix operations
   LAPACKE interface :  Fast linear algebra routines
   SCALAPACK package :  Parallel linear algebra routines
   Shared memory     :  Shared parallel matrices
   BLAS/LAPACK       :  OpenBLAS 0.3.29  USE64BITINT DYNAMIC_ARCH NO_AFFINITY SkylakeX SINGLE_THREADED
        Core in use  :  SkylakeX
   Copyright (c) 2011-2014, The OpenBLAS Project


  ***********************************
  * Starting time: Tue Jul 14 20:10:47 2026
  * Host name:     tomasz-Precision-5820-Tower
  * Process ID:    1635946
  * Working dir.:  /data/BIOFILM_INSILICO_SUPPORT/01_qm_orca_xtb/compound_08/charges
  ***********************************

NOTE: MaxCore=3000 MB was set to SCF,MP2,MDCI,CIPSI,MRCI,RASCI and CIS
      => If you want to overwrite this, your respective input block should be placed after the MaxCore statement


***************************************
The coordinates will be read from file: /data/BIOFILM_INSILICO_SUPPORT/01_qm_orca_xtb/compound_08/geometries/compound_08_wb97xd3_def2svp_cpcm_water_opt_min.xyz
***************************************


================================================================================

----- Orbital basis set information -----
Your calculation utilizes the basis: 6-31G*
   H-He, Li-Ne : W. J. Hehre, R. Ditchfield and J.A. Pople, J. Chem. Phys. 56, 2257 (1972).
                 Note: He and Ne are unpublished basis sets taken from the Gaussian program.
                 Note: Li and B from J. D. Dill and J. A. Pople, J. Chem. Phys. 62, 2921 (1975).
   Na - Ar     : M. M. Francl, W. J. Pietro, W. J. Hehre, J. S. Binkley, M. S. Gordon, 
                 D. J. DeFrees and J. A. Pople, J. Chem. Phys. 77, 3654 (1982).
   Sc - Zn     : V. A. Rassolov, J. A. Pople, M. A. Ratner, and T. L. Windus, J. Chem. Phys. 109, 1223 (1998).
   K,Ca,Ga-Kr  : V.A. Rassolov, M.A. Ratner, J.A. Pople, P.C. Redfern, and L.A. Curtiss, J. Comput. Chem. 22, 976 (2001).
================================================================================
                                        WARNINGS
                       Please study these warnings very carefully!
================================================================================


================================================================================
                                       INPUT FILE
================================================================================
NAME = compound_08_hf_631gstar_gas_chelpg.inp
|  1> ! HF 6-31G* TightSCF CHELPG
|  2> 
|  3> %pal
|  4>   nprocs 8
|  5> end
|  6> 
|  7> %maxcore 3000
|  8> 
|  9> %chelpg
| 10>   grid 0.3
| 11>   rmax 2.8
| 12>   dipole false
| 13>   vdwradii cosmo
| 14> end
| 15> 
| 16> * xyzfile 0 1 /data/BIOFILM_INSILICO_SUPPORT/01_qm_orca_xtb/compound_08/geometries/compound_08_wb97xd3_def2svp_cpcm_water_opt_min.xyz
| 17> 
| 18>                          ****END OF INPUT****
================================================================================

                       ****************************
                       * Single Point Calculation *
                       ****************************

---------------------------------
CARTESIAN COORDINATES (ANGSTROEM)
---------------------------------
  S     10.550905    3.549742    0.814596
  C      9.687892    2.379997   -0.036619
  N     10.242600    1.492936   -0.857142
  N      8.331487    2.319935    0.092320
  N      7.633834    1.322912   -0.504493
  C      6.362316    1.318251   -0.407185
  C      5.555409    0.188711   -0.977428
  C      4.571150   -0.336467    0.091815
  S      3.189072   -1.129741   -0.792214
  C      2.468089   -2.110755    0.571200
  C      1.456065   -3.136955    0.036424
  O      1.952285   -3.869170   -1.068623
  C      2.831416   -4.860077   -0.827143
  C      3.263867   -5.519475   -2.099331
  O      3.207293   -5.135250    0.284514
  C      0.182119   -2.446231   -0.422102
  O     -0.803726   -3.425149   -0.722279
  C     -1.078893   -3.698578   -2.010637
  C     -2.174138   -4.714341   -2.120347
  O     -0.511390   -3.168777   -2.933089
  C     -0.388440   -1.529594    0.653267
  O     -1.393976   -0.724362    0.072415
  C     -2.718724   -1.097661    0.299215
  C     -3.575984   -0.643986   -0.879837
  O     -3.046192   -1.131985   -2.099699
  C     -3.908789   -1.655087   -3.001570
  C     -3.256659   -1.823949   -4.338050
  O     -5.052493   -1.923663   -2.737142
  C     -3.646364    0.873702   -0.954053
  O     -4.555573    1.187916   -2.001155
  C     -4.305368    2.245741   -2.793391
  C     -5.377993    2.404554   -3.825988
  O     -3.348162    2.964619   -2.648763
  C     -4.130527    1.430021    0.378155
  O     -3.977116    2.843922    0.405031
  C     -5.018972    3.625703    0.068363
  C     -4.636776    5.072856    0.111947
  O     -6.097253    3.185900   -0.243848
  C     -3.260467    0.883948    1.512724
  C     -3.753780    1.289757    2.885106
  O     -5.089280    0.837872    3.080431
  C     -5.302273   -0.251642    3.835917
  C     -6.745835   -0.655951    3.796795
  O     -4.433996   -0.812505    4.456762
  O     -3.223008   -0.534158    1.476558
  C      0.704888   -0.610221    1.203947
  C      0.263649    0.135243    2.449012
  O      1.090177    1.271441    2.683038
  C      0.764036    2.414249    2.058248
  C      1.776203    3.489390    2.307181
  O     -0.218152    2.521292    1.362586
  O      1.854224   -1.351595    1.573410
  C      4.128187    0.834168    0.997911
  O      4.191267    2.040447    0.239405
  C      5.543168    2.367886    0.349394
  O      5.830885    2.281432    1.721304
  C      5.100644    1.138326    2.168611
  H      9.665339    0.799183   -1.321859
  H     11.246049    1.491873   -0.982643
  H      7.911343    2.926758    0.794278
  H      6.214459   -0.607578   -1.344731
  H      4.980075    0.579475   -1.833962
  H      5.055502   -1.110324    0.706971
  H      3.293753   -2.640966    1.064143
  H      1.226587   -3.824970    0.865345
  H      3.852704   -4.798969   -2.686046
  H      3.874520   -6.400120   -1.873733
  H      2.385992   -5.798225   -2.697584
  H      0.383500   -1.851896   -1.326141
  H     -3.099312   -4.298058   -1.694581
  H     -2.332978   -4.981855   -3.170601
  H     -1.913915   -5.606161   -1.533756
  H     -0.802437   -2.141918    1.473972
  H     -2.802740   -2.187288    0.426464
  H     -4.587158   -1.048911   -0.732642
  H     -3.137557   -0.826154   -4.787141
  H     -2.257495   -2.264892   -4.228644
  H     -3.889959   -2.442099   -4.983587
  H     -2.655986    1.290474   -1.189934
  H     -5.576018    1.443395   -4.318752
  H     -6.301156    2.720060   -3.317677
  H     -5.082351    3.163531   -4.558054
  H     -5.186967    1.164597    0.530563
  H     -4.180292    5.314910    1.081109
  H     -3.884425    5.256585   -0.668958
  H     -5.518265    5.697699   -0.066252
  H     -2.247856    1.304362    1.381965
  H     -3.094881    0.867080    3.654697
  H     -3.763534    2.383937    2.968014
  H     -6.997543   -0.983921    2.777595
  H     -6.924814   -1.472189    4.505010
  H     -7.384264    0.205428    4.036026
  H      0.958422    0.113111    0.406321
  H      0.384150   -0.516627    3.323315
  H     -0.784297    0.440147    2.366626
  H      1.366396    4.461121    2.010632
  H      2.666416    3.270082    1.696733
  H      2.080522    3.497883    3.361681
  H      3.105974    0.698356    1.361119
  H      5.718546    3.392854   -0.010666
  H      5.778387    0.297262    2.384385
  H      4.554430    1.407310    3.082806

----------------------------
CARTESIAN COORDINATES (A.U.)
----------------------------
  NO LB      ZA    FRAG     MASS         X           Y           Z
   0 S    16.0000    0    32.060   19.938321    6.708041    1.539364
   1 C     6.0000    0    12.011   18.307464    4.497543   -0.069200
   2 N     7.0000    0    14.007   19.355709    2.821239   -1.619763
   3 N     7.0000    0    14.007   15.744228    4.384041    0.174459
   4 N     7.0000    0    14.007   14.425856    2.499941   -0.953354
   5 C     6.0000    0    12.011   12.023036    2.491134   -0.769469
   6 C     6.0000    0    12.011   10.498201    0.356613   -1.847071
   7 C     6.0000    0    12.011    8.638221   -0.635830    0.173506
   8 S    16.0000    0    32.060    6.026473   -2.134901   -1.497067
   9 C     6.0000    0    12.011    4.664013   -3.988749    1.079412
  10 C     6.0000    0    12.011    2.751564   -5.927987    0.068832
  11 O     8.0000    0    15.999    3.689283   -7.311672   -2.019405
  12 C     6.0000    0    12.011    5.350602   -9.184215   -1.563074
  13 C     6.0000    0    12.011    6.167815  -10.430296   -3.967160
  14 O     8.0000    0    15.999    6.060906   -9.704216    0.537653
  15 C     6.0000    0    12.011    0.344155   -4.622707   -0.797657
  16 O     8.0000    0    15.999   -1.518822   -6.472594   -1.364910
  17 C     6.0000    0    12.011   -2.038812   -6.989299   -3.799553
  18 C     6.0000    0    12.011   -4.108525   -8.908813   -4.006876
  19 O     8.0000    0    15.999   -0.966387   -5.988120   -5.542736
  20 C     6.0000    0    12.011   -0.734045   -2.890514    1.234495
  21 O     8.0000    0    15.999   -2.634233   -1.368845    0.136845
  22 C     6.0000    0    12.011   -5.137644   -2.074278    0.565434
  23 C     6.0000    0    12.011   -6.757630   -1.216957   -1.662651
  24 O     8.0000    0    15.999   -5.756468   -2.139141   -3.967855
  25 C     6.0000    0    12.011   -7.386541   -3.127661   -5.672146
  26 C     6.0000    0    12.011   -6.154194   -3.446764   -8.197726
  27 O     8.0000    0    15.999   -9.547828   -3.635196   -5.172449
  28 C     6.0000    0    12.011   -6.890630    1.651057   -1.802899
  29 O     8.0000    0    15.999   -8.608786    2.244835   -3.781634
  30 C     6.0000    0    12.011   -8.135966    4.243836   -5.278744
  31 C     6.0000    0    12.011  -10.162934    4.543949   -7.230069
  32 O     8.0000    0    15.999   -6.327109    5.602319   -5.005437
  33 C     6.0000    0    12.011   -7.805565    2.702348    0.714610
  34 O     8.0000    0    15.999   -7.515659    5.374234    0.765398
  35 C     6.0000    0    12.011   -9.484482    6.851585    0.129187
  36 C     6.0000    0    12.011   -8.762236    9.586309    0.211549
  37 O     8.0000    0    15.999  -11.522139    6.020479   -0.460806
  38 C     6.0000    0    12.011   -6.161389    1.670419    2.858635
  39 C     6.0000    0    12.011   -7.093617    2.437288    5.452061
  40 O     8.0000    0    15.999   -9.617345    1.583349    5.821171
  41 C     6.0000    0    12.011  -10.019843   -0.475534    7.248833
  42 C     6.0000    0    12.011  -12.747780   -1.239568    7.174903
  43 O     8.0000    0    15.999   -8.379037   -1.535412    8.422060
  44 O     8.0000    0    15.999   -6.090602   -1.009413    2.790290
  45 C     6.0000    0    12.011    1.332046   -1.153150    2.275130
  46 C     6.0000    0    12.011    0.498224    0.255573    4.627962
  47 O     8.0000    0    15.999    2.060137    2.402675    5.070207
  48 C     6.0000    0    12.011    1.443820    4.562269    3.889524
  49 C     6.0000    0    12.011    3.356538    6.593992    4.359941
  50 O     8.0000    0    15.999   -0.412247    4.764551    2.574914
  51 O     8.0000    0    15.999    3.503975   -2.554145    2.973313
  52 C     6.0000    0    12.011    7.801144    1.576349    1.885779
  53 O     8.0000    0    15.999    7.920347    3.855887    0.452410
  54 C     6.0000    0    12.011   10.475069    4.474656    0.660258
  55 O     8.0000    0    15.999   11.018776    4.311282    3.252793
  56 C     6.0000    0    12.011    9.638821    2.151125    4.098081
  57 H     1.0000    0     1.008   18.264843    1.510238   -2.497951
  58 H     1.0000    0     1.008   21.251953    2.819232   -1.856927
  59 H     1.0000    0     1.008   14.950271    5.530771    1.500967
  60 H     1.0000    0     1.008   11.743625   -1.148157   -2.541174
  61 H     1.0000    0     1.008    9.410978    1.095049   -3.465686
  62 H     1.0000    0     1.008    9.553513   -2.098207    1.335981
  63 H     1.0000    0     1.008    6.224291   -4.990702    2.010939
  64 H     1.0000    0     1.008    2.317914   -7.228145    1.635265
  65 H     1.0000    0     1.008    7.280555   -9.068737   -5.075891
  66 H     1.0000    0     1.008    7.321782  -12.094475   -3.540842
  67 H     1.0000    0     1.008    4.508870  -10.957057   -5.097694
  68 H     1.0000    0     1.008    0.724710   -3.499576   -2.506044
  69 H     1.0000    0     1.008   -5.856850   -8.122153   -3.202293
  70 H     1.0000    0     1.008   -4.408690   -9.414342   -5.991567
  71 H     1.0000    0     1.008   -3.616775  -10.594109   -2.898379
  72 H     1.0000    0     1.008   -1.516387   -4.047638    2.785403
  73 H     1.0000    0     1.008   -5.296410   -4.133376    0.805900
  74 H     1.0000    0     1.008   -8.668472   -1.982155   -1.384493
  75 H     1.0000    0     1.008   -5.929124   -1.561206   -9.046385
  76 H     1.0000    0     1.008   -4.266047   -4.280025   -7.990979
  77 H     1.0000    0     1.008   -7.350957   -4.614898   -9.417615
  78 H     1.0000    0     1.008   -5.019087    2.438643   -2.248648
  79 H     1.0000    0     1.008  -10.537146    2.727621   -8.161258
  80 H     1.0000    0     1.008  -11.907458    5.140168   -6.269501
  81 H     1.0000    0     1.008   -9.604251    5.978208   -8.613473
  82 H     1.0000    0     1.008   -9.801947    2.200769    1.002618
  83 H     1.0000    0     1.008   -7.899607   10.043725    2.043000
  84 H     1.0000    0     1.008   -7.340500    9.933506   -1.264147
  85 H     1.0000    0     1.008  -10.428009   10.767091   -0.125198
  86 H     1.0000    0     1.008   -4.247832    2.464888    2.611535
  87 H     1.0000    0     1.008   -5.848478    1.638543    6.906377
  88 H     1.0000    0     1.008   -7.112049    4.504989    5.608735
  89 H     1.0000    0     1.008  -13.223441   -1.859342    5.248894
  90 H     1.0000    0     1.008  -13.086001   -2.782034    8.513235
  91 H     1.0000    0     1.008  -13.954237    0.388203    7.626983
  92 H     1.0000    0     1.008    1.811156    0.213749    0.767835
  93 H     1.0000    0     1.008    0.725938   -0.976283    6.280154
  94 H     1.0000    0     1.008   -1.482107    0.831757    4.472274
  95 H     1.0000    0     1.008    2.582114    8.430296    3.799543
  96 H     1.0000    0     1.008    5.038795    6.179559    3.206361
  97 H     1.0000    0     1.008    3.931617    6.610040    6.352656
  98 H     1.0000    0     1.008    5.869441    1.319701    2.572142
  99 H     1.0000    0     1.008   10.806486    6.411564   -0.020156
 100 H     1.0000    0     1.008   10.919570    0.561744    4.505835
 101 H     1.0000    0     1.008    8.606626    2.659430    5.825660

--------------------------------
INTERNAL COORDINATES (ANGSTROEM)
--------------------------------
 S      0   0   0     0.000000000000     0.00000000     0.00000000
 C      1   0   0     1.684535963994     0.00000000     0.00000000
 N      2   1   0     1.329600367153   124.15132214     0.00000000
 N      2   1   3     1.363843709314   119.49379978   180.63597779
 N      4   2   1     1.355344642970   120.17884052   185.02477563
 C      5   4   2     1.275244132256   118.83740397   182.48278971
 C      6   5   4     1.500712231647   120.65504221   183.87963436
 C      7   6   5     1.545269711983   109.59408256   129.74247458
 S      8   7   6     1.822341799325   107.17815595   155.75986618
 C      9   8   7     1.827868134407    99.84192884   162.81034452
 C     10   9   8     1.537292007212   111.00537205   192.69080035
 O     11  10   9     1.415451442967   112.71280405    47.53670624
 C     12  11  10     1.346507107168   118.00610533    77.06854973
 C     13  12  11     1.496756423343   111.12560650   180.57969812
 O     13  12  11     1.205315450106   122.48074276   359.70635102
 C     11  10   9     1.519962015977   110.69248069   287.66254958
 O     16  11  10     1.421364351574   109.39387254   188.60378370
 C     17  16  11     1.345490596023   118.94884871   255.46205629
 C     18  17  16     1.497788827582   110.94688135   182.08595920
 O     18  17  16     1.205681466873   123.16422895     1.35115616
 C     16  11  10     1.523869583239   111.97990623   307.89188969
 O     21  16  11     1.413113948766   108.60972591   168.08971966
 C     22  21  16     1.394900585747   117.15889886   101.19289486
 C     23  22  21     1.526721587813   109.15798899   208.79804258
 O     24  23  22     1.416645543655   110.64944194    54.06754757
 C     25  24  23     1.353175010083   117.94828393   135.78867004
 C     26  25  24     1.496651329985   111.16256539   166.65614577
 O     26  25  24     1.204206763745   123.04518866   347.53070110
 C     24  23  22     1.521130563847   111.10898913   293.34429428
 O     29  24  23     1.421904613601   106.61838969   185.07984445
 C     30  29  24     1.345078415053   119.24732511   217.30171502
 C     31  30  29     1.497331770541   110.87562467   180.06795421
 O     31  30  29     1.205796863057   123.08517867   358.82222429
 C     29  24  23     1.522722568573   109.66643471   305.46982135
 O     34  29  24     1.422453974562   110.20540202   169.74049139
 C     35  34  29     1.345358611662   119.29803660    94.94718390
 C     36  35  34     1.497406763901   110.89462789   182.11857764
 O     36  35  34     1.205650376065   123.05370805     0.95738203
 C     34  29  24     1.530505721078   109.72163055    53.11690979
 C     39  34  29     1.513760885183   113.02671597   185.22609337
 O     40  39  34     1.423344513946   110.18640867    58.34112450
 C     41  40  39     1.342820593919   118.92247765   102.46797897
 C     42  41  40     1.499622711740   110.90125786   186.33614580
 O     42  41  40     1.205786345272   123.56366535     6.47004086
 O     23  22  21     1.399276068087   111.79558215    87.95972133
 C     21  16  11     1.530967779916   110.34475946    49.53313186
 C     46  21  16     1.516771698332   112.49820549   190.84382945
 O     47  46  21     1.424381286170   110.98393412   199.02855545
 C     48  47  46     1.342662094625   117.48637725    85.96586095
 C     49  48  47     1.497457336057   111.68878961   184.58461549
 O     49  48  47     1.208344764810   122.73435736     3.06310978
 O     10   9   8     1.399134493049   114.59153974    68.93190070
 C      8   7   6     1.545189594963   109.32170758    32.49244255
 O     53   8   7     1.426331281459   108.43331417    28.30891446
 C     54  53   8     1.395331071367   101.50144559   277.21705681
 O     55  54  53     1.404419350080   105.13208686   310.51511716
 C     56  55  54     1.428294532205   104.50426651    39.23634145
 H      3   2   1     1.015128166575   120.08056936   178.47417951
 H      3   2   1     1.011267091920   119.42348619     1.02380318
 H      4   2   1     1.018577595741   116.68903147   352.91802342
 H      7   6   5     1.096966751479   110.52149325     6.37942564
 H      7   6   5     1.103338491169   107.98625440   248.34369418
 H      8   7   6     1.100848595838   110.20165117   272.30836925
 H     10   9   8     1.098106041007   107.30152066   311.93524617
 H     11  10   9     1.101423270566   106.99801335   168.23304346
 H     14  13  12     1.100041834806   108.62900667    67.14601291
 H     14  13  12     1.095138248340   109.89389700   187.23962772
 H     14  13  12     1.098305238735   110.11181615   309.46220875
 H     16  11  10     1.100488803258   109.86888847    68.99929922
 H     19  18  17     1.100233953235   109.26595401    63.49628216
 H     19  18  17     1.095366328856   109.99245924   184.30214132
 H     19  18  17     1.098702976517   109.76595206   305.92027033
 H     21  16  11     1.104486779612   109.34348244   289.07242448
 H     23  22  21     1.100244958430   110.87679835   330.03340257
 H     24  23  22     1.099137552727   107.67824666   173.60590228
 H     27  26  25     1.100664239463   108.01224991   286.98829697
 H     27  26  25     1.097601918833   110.66875355    44.82567753
 H     27  26  25     1.095398012767   109.75540898   167.67408650
 H     29  24  23     1.100085083790   110.29199741    66.26196242
 H     32  31  30     1.098115733545   110.23097419   311.49114399
 H     32  31  30     1.100069247921   108.23537479    69.26392628
 H     32  31  30     1.095158226591   109.94428662   189.04063982
 H     34  29  24     1.099882859207   109.78339815   290.96232730
 H     37  36  35     1.098290735582   110.16744140   307.80732526
 H     37  36  35     1.099818182532   108.38383727    65.51255702
 H     37  36  35     1.095082879069   109.95302981   185.61683822
 H     39  34  29     1.104186222624   107.31944359    66.62448429
 H     40  39  34     1.097759274560   109.67934535   179.77850110
 H     40  39  34     1.097360013031   109.79746240   300.33098854
 H     43  42  41     1.099859384850   108.95767850    66.02500902
 H     43  42  41     1.095374771509   109.95745707   186.46819512
 H     43  42  41     1.098542997999   110.02018380   308.26879751
 H     46  21  16     1.106208016514   107.27680922    70.11187918
 H     47  46  21     1.097205808195   109.27818464    82.21944724
 H     47  46  21     1.094506244540   110.71122429   321.77326974
 H     50  49  48     1.095511057349   109.81631070   194.45020091
 H     50  49  48     1.101462898299   108.13170026    75.37938205
 H     50  49  48     1.097565886542   110.65142469   317.21983571
 H     53   8   7     1.093290610897   111.63750573   148.21507548
 H     55  54  53     1.100436277233   110.31573819   191.80009587
 H     57  56  55     1.101491472037   110.96970341   107.69575824
 H     57  56  55     1.098387495628   108.59720953   227.81173359

---------------------------
INTERNAL COORDINATES (A.U.)
---------------------------
 S      0   0   0     0.000000000000     0.00000000     0.00000000
 C      1   0   0     3.183311634690     0.00000000     0.00000000
 N      2   1   0     2.512580561481   124.15132214     0.00000000
 N      2   1   3     2.577291100075   119.49379978   180.63597779
 N      4   2   1     2.561230192291   120.17884052   185.02477563
 C      5   4   2     2.409862163854   118.83740397   182.48278971
 C      6   5   4     2.835935123639   120.65504221   183.87963436
 C      7   6   5     2.920136558691   109.59408256   129.74247458
 S      8   7   6     3.443726923122   107.17815595   155.75986618
 C      9   8   7     3.454170182951    99.84192884   162.81034452
 C     10   9   8     2.905060881497   111.00537205   192.69080035
 O     11  10   9     2.674815583071   112.71280405    47.53670624
 C     12  11  10     2.544529669926   118.00610533    77.06854973
 C     13  12  11     2.828459729305   111.12560650   180.57969812
 O     13  12  11     2.277716105685   122.48074276   359.70635102
 C     11  10   9     2.872311944160   110.69248069   287.66254958
 O     16  11  10     2.685989360993   109.39387254   188.60378370
 C     17  16  11     2.542608742249   118.94884871   255.46205629
 C     18  17  16     2.830410690576   110.94688135   182.08595920
 O     18  17  16     2.278407777134   123.16422895     1.35115616
 C     16  11  10     2.879696176134   111.97990623   307.89188969
 O     21  16  11     2.670398359192   108.60972591   168.08971966
 C     22  21  16     2.635980091109   117.15889886   101.19289486
 C     23  22  21     2.885085683712   109.15798899   208.79804258
 O     24  23  22     2.677072106347   110.64944194    54.06754757
 C     25  24  23     2.557130180322   117.94828393   135.78867004
 C     26  25  24     2.828261131642   111.16256539   166.65614577
 O     26  25  24     2.275620992094   123.04518866   347.53070110
 C     24  23  22     2.874520179607   111.10898913   293.34429428
 O     29  24  23     2.687010308265   106.61838969   185.07984445
 C     30  29  24     2.541829833099   119.24732511   217.30171502
 C     31  30  29     2.829546977941   110.87562467   180.06795421
 O     31  30  29     2.278625844320   123.08517867   358.82222429
 C     29  24  23     2.877528632545   109.66643471   305.46982135
 O     34  29  24     2.688048450031   110.20540202   169.74049139
 C     35  34  29     2.542359327953   119.29803660    94.94718390
 C     36  35  34     2.829688694854   110.89462789   182.11857764
 O     36  35  34     2.278349024022   123.05370805     0.95738203
 C     34  29  24     2.892236659238   109.72163055    53.11690979
 C     39  34  29     2.860593505238   113.02671597   185.22609337
 O     40  39  34     2.689731325577   110.18640867    58.34112450
 C     41  40  39     2.537563169496   118.92247765   102.46797897
 C     42  41  40     2.833876229397   110.90125786   186.33614580
 O     42  41  40     2.278605968585   123.56366535     6.47004086
 O     23  22  21     2.644248554435   111.79558215    87.95972133
 C     21  16  11     2.893109823898   110.34475946    49.53313186
 C     46  21  16     2.866283117530   112.49820549   190.84382945
 O     47  46  21     2.691690541144   110.98393412   199.02855545
 C     48  47  46     2.537263649239   117.48637725    85.96586095
 C     49  48  47     2.829784262379   111.68878961   184.58461549
 O     49  48  47     2.283440680848   122.73435736     3.06310978
 O     10   9   8     2.643981016386   114.59153974    68.93190070
 C      8   7   6     2.919985159464   109.32170758    32.49244255
 O     53   8   7     2.695375498202   108.43331417    28.30891446
 C     54  53   8     2.636793591034   101.50144559   277.21705681
 O     55  54  53     2.653967948830   105.13208686   310.51511716
 C     56  55  54     2.699085504444   104.50426651    39.23634145
 H      3   2   1     1.918314225657   120.08056936   178.47417951
 H      3   2   1     1.911017851975   119.42348619     1.02380318
 H      4   2   1     1.924832702098   116.68903147   352.91802342
 H      7   6   5     2.072966738313   110.52149325     6.37942564
 H      7   6   5     2.085007581323   107.98625440   248.34369418
 H      8   7   6     2.080302361045   110.20165117   272.30836925
 H     10   9   8     2.075119683507   107.30152066   311.93524617
 H     11  10   9     2.081388338898   106.99801335   168.23304346
 H     14  13  12     2.078777803640   108.62900667    67.14601291
 H     14  13  12     2.069511368145   109.89389700   187.23962772
 H     14  13  12     2.075496112660   110.11181615   309.46220875
 H     16  11  10     2.079622451605   109.86888847    68.99929922
 H     19  18  17     2.079140854855   109.26595401    63.49628216
 H     19  18  17     2.069942377857   109.99245924   184.30214132
 H     19  18  17     2.076247728141   109.76595206   305.92027033
 H     21  16  11     2.087177532004   109.34348244   289.07242448
 H     23  22  21     2.079161651661   110.87679835   330.03340257
 H     24  23  22     2.077068958162   107.67824666   173.60590228
 H     27  26  25     2.079953977985   108.01224991   286.98829697
 H     27  26  25     2.074167030661   110.66875355    44.82567753
 H     27  26  25     2.070002251771   109.75540898   167.67408650
 H     29  24  23     2.078859532374   110.29199741    66.26196242
 H     32  31  30     2.075137999750   110.23097419   311.49114399
 H     32  31  30     2.078829606920   108.23537479    69.26392628
 H     32  31  30     2.069549121568   109.94428662   189.04063982
 H     34  29  24     2.078477383295   109.78339815   290.96232730
 H     37  36  35     2.075468705673   110.16744140   307.80732526
 H     37  36  35     2.078355162093   108.38383727    65.51255702
 H     37  36  35     2.069406735386   109.95302981   185.61683822
 H     39  34  29     2.086609561608   107.31944359    66.62448429
 H     40  39  34     2.074464389890   109.67934535   179.77850110
 H     40  39  34     2.073709894944   109.79746240   300.33098854
 H     43  42  41     2.078433023189   108.95767850    66.02500902
 H     43  42  41     2.069958332159   109.95745707   186.46819512
 H     43  42  41     2.075945412554   110.02018380   308.26879751
 H     46  21  16     2.090430198359   107.27680922    70.11187918
 H     47  46  21     2.073418490037   109.27818464    82.21944724
 H     47  46  21     2.068317054047   110.71122429   321.77326974
 H     50  49  48     2.070215875072   109.81631070   194.45020091
 H     50  49  48     2.081463224460   108.13170026    75.37938205
 H     50  49  48     2.074098939499   110.65142469   317.21983571
 H     53   8   7     2.066019839382   111.63750573   148.21507548
 H     55  54  53     2.079523191801   110.31573819   191.80009587
 H     57  56  55     2.081517220999   110.96970341   107.69575824
 H     57  56  55     2.075651555661   108.59720953   227.81173359

---------------------
BASIS SET INFORMATION
---------------------
There are 5 groups of distinct atoms

 Group   1 Type S   : 16s10p1d contracted to 4s3p1d pattern {6631/631/1}
 Group   2 Type C   : 10s4p1d contracted to 3s2p1d pattern {631/31/1}
 Group   3 Type N   : 10s4p1d contracted to 3s2p1d pattern {631/31/1}
 Group   4 Type O   : 10s4p1d contracted to 3s2p1d pattern {631/31/1}
 Group   5 Type H   : 4s contracted to 2s pattern {31}

Atom   0S    basis set group =>   1
Atom   1C    basis set group =>   2
Atom   2N    basis set group =>   3
Atom   3N    basis set group =>   3
Atom   4N    basis set group =>   3
Atom   5C    basis set group =>   2
Atom   6C    basis set group =>   2
Atom   7C    basis set group =>   2
Atom   8S    basis set group =>   1
Atom   9C    basis set group =>   2
Atom  10C    basis set group =>   2
Atom  11O    basis set group =>   4
Atom  12C    basis set group =>   2
Atom  13C    basis set group =>   2
Atom  14O    basis set group =>   4
Atom  15C    basis set group =>   2
Atom  16O    basis set group =>   4
Atom  17C    basis set group =>   2
Atom  18C    basis set group =>   2
Atom  19O    basis set group =>   4
Atom  20C    basis set group =>   2
Atom  21O    basis set group =>   4
Atom  22C    basis set group =>   2
Atom  23C    basis set group =>   2
Atom  24O    basis set group =>   4
Atom  25C    basis set group =>   2
Atom  26C    basis set group =>   2
Atom  27O    basis set group =>   4
Atom  28C    basis set group =>   2
Atom  29O    basis set group =>   4
Atom  30C    basis set group =>   2
Atom  31C    basis set group =>   2
Atom  32O    basis set group =>   4
Atom  33C    basis set group =>   2
Atom  34O    basis set group =>   4
Atom  35C    basis set group =>   2
Atom  36C    basis set group =>   2
Atom  37O    basis set group =>   4
Atom  38C    basis set group =>   2
Atom  39C    basis set group =>   2
Atom  40O    basis set group =>   4
Atom  41C    basis set group =>   2
Atom  42C    basis set group =>   2
Atom  43O    basis set group =>   4
Atom  44O    basis set group =>   4
Atom  45C    basis set group =>   2
Atom  46C    basis set group =>   2
Atom  47O    basis set group =>   4
Atom  48C    basis set group =>   2
Atom  49C    basis set group =>   2
Atom  50O    basis set group =>   4
Atom  51O    basis set group =>   4
Atom  52C    basis set group =>   2
Atom  53O    basis set group =>   4
Atom  54C    basis set group =>   2
Atom  55O    basis set group =>   4
Atom  56C    basis set group =>   2
Atom  57H    basis set group =>   5
Atom  58H    basis set group =>   5
Atom  59H    basis set group =>   5
Atom  60H    basis set group =>   5
Atom  61H    basis set group =>   5
Atom  62H    basis set group =>   5
Atom  63H    basis set group =>   5
Atom  64H    basis set group =>   5
Atom  65H    basis set group =>   5
Atom  66H    basis set group =>   5
Atom  67H    basis set group =>   5
Atom  68H    basis set group =>   5
Atom  69H    basis set group =>   5
Atom  70H    basis set group =>   5
Atom  71H    basis set group =>   5
Atom  72H    basis set group =>   5
Atom  73H    basis set group =>   5
Atom  74H    basis set group =>   5
Atom  75H    basis set group =>   5
Atom  76H    basis set group =>   5
Atom  77H    basis set group =>   5
Atom  78H    basis set group =>   5
Atom  79H    basis set group =>   5
Atom  80H    basis set group =>   5
Atom  81H    basis set group =>   5
Atom  82H    basis set group =>   5
Atom  83H    basis set group =>   5
Atom  84H    basis set group =>   5
Atom  85H    basis set group =>   5
Atom  86H    basis set group =>   5
Atom  87H    basis set group =>   5
Atom  88H    basis set group =>   5
Atom  89H    basis set group =>   5
Atom  90H    basis set group =>   5
Atom  91H    basis set group =>   5
Atom  92H    basis set group =>   5
Atom  93H    basis set group =>   5
Atom  94H    basis set group =>   5
Atom  95H    basis set group =>   5
Atom  96H    basis set group =>   5
Atom  97H    basis set group =>   5
Atom  98H    basis set group =>   5
Atom  99H    basis set group =>   5
Atom 100H    basis set group =>   5
Atom 101H    basis set group =>   5


           ************************************************************
           *        Program running with 8 parallel MPI-processes     *
           *              working on a common directory               *
           ************************************************************
------------------------------------------------------------------------------
                             ORCA STARTUP CALCULATIONS
------------------------------------------------------------------------------
------------------------------------------------------------------------------
                   ___                                                        
                  /   \      - P O W E R E D   B Y -                         
                 /     \                                                     
                 |  |  |   _    _      __       _____    __    __             
                 |  |  |  | |  | |    /  \     |  _  \  |  |  /  |          
                  \  \/   | |  | |   /    \    | | | |  |  | /  /          
                 / \  \   | |__| |  /  /\  \   | |_| |  |  |/  /          
                |  |  |   |  __  | /  /__\  \  |    /   |      \           
                |  |  |   | |  | | |   __   |  |    \   |  |\   \          
                \     /   | |  | | |  |  |  |  | |\  \  |  | \   \       
                 \___/    |_|  |_| |__|  |__|  |_| \__\ |__|  \__/        
                                                                              
                      - O R C A' S   B I G   F R I E N D -                    
                                      &                                       
                       - I N T E G R A L  F E E D E R -                       
                                                                              
 v1 FN, 2020, v2 2021, v3 2022-2024                                           
------------------------------------------------------------------------------


----------------------
SHARK INTEGRAL PACKAGE
----------------------

Number of atoms                             ...    102
Number of basis functions                   ...    896
Number of shells                            ...    436
Maximum angular momentum                    ...      2
Integral batch strategy                     ... SHARK/LIBINT Hybrid
RI-J (if used) integral strategy            ... SPLIT-RIJ (Revised 2003 algorithm where possible)
Printlevel                                  ...      1
Contraction scheme used                     ... SEGMENTED contraction
Prescreening option                         ... SCHWARTZ
   Thresh                                   ... 2.500e-11
   Tcut                                     ... 2.500e-12
   Tpresel                                  ... 2.500e-12 
Coulomb Range Separation                    ... NOT USED
Exchange Range Separation                   ... NOT USED
Multipole approximations                    ... NOT USED
Finite Nucleus Model                        ... NOT USED
CABS basis                                  ... NOT available
Auxiliary Coulomb fitting basis             ... NOT available
Auxiliary J/K fitting basis                 ... NOT available
Auxiliary Correlation fitting basis         ... NOT available
Auxiliary 'external' fitting basis          ... NOT available

Checking pre-screening integrals            ... done (  0.0 sec) Dimension = 436
   => SHARK Basis and OBASIS are compatible. Storing Pre-screening
Shell pair information
Shell pair cut-off parameter TPreSel        ...   2.5e-12
Total number of shell pairs                 ...     95266
Shell pairs after pre-screening             ...     40757
Total number of primitive shell pairs       ...    562662
Primitive shell pairs kept                  ...    114214
          la=0 lb=0:  13954 shell pairs
          la=1 lb=0:  14382 shell pairs
          la=1 lb=1:   3735 shell pairs
          la=2 lb=0:   5294 shell pairs
          la=2 lb=1:   2877 shell pairs
          la=2 lb=2:    515 shell pairs

Checking whether 4 symmetric matrices of dimension 896 fit in memory
:Max Core in MB      =   3000.00
 MB in use           =     53.20
 MB left             =   2946.80
 MB needed           =     12.26
 Data fit in memory  = YES
Calculating Nuclear repulsion               ... done (  0.0 sec) ENN=   9669.969983183504 Eh

Diagonalization of the overlap matrix:
Smallest eigenvalue                        ... 1.641e-03
Time for diagonalization                   ...    0.127 sec
Threshold for overlap eigenvalues          ... 1.000e-07
Number of eigenvalues below threshold      ... 0
Time for construction of square roots      ...    0.046 sec
Total time needed                          ...    0.178 sec

-------------------
DFT GRID GENERATION
-------------------

General Integration Accuracy     IntAcc      ... 4.388
Radial Grid Type                 RadialGrid  ... OptM3 with GC (2021)
Angular Grid (max. ang.)         AngularGrid ... 4 (Lebedev-302)
Angular grid pruning method      GridPruning ... 4 (adaptive)
Weight generation scheme         WeightScheme... mBecke (2022)
Basis function cutoff            BFCut       ... 1.0000e-11
Integration weight cutoff        WCut        ... 1.0000e-14
Partially contracted basis set               ... off
Rotationally invariant grid construction     ... off
Angular grids for H and He will be reduced by one unit

Total number of grid points                  ...   483637
Total number of batches                      ...     7603
Average number of points per batch           ...       63
Average number of grid points per atom       ...     4742
Grids setup in   3.1 sec
Initializing property integral containers    ... done (  0.0 sec)

SHARK setup successfully completed in   3.7 seconds

Maximum memory used throughout the entire STARTUP-calculation: 144.8 MB


           ************************************************************
           *        Program running with 8 parallel MPI-processes     *
           *              working on a common directory               *
           ************************************************************
-------------------------------------------------------------------------------
                                 ORCA GUESS
                   Start orbitals & Density for SCF / CASSCF
-------------------------------------------------------------------------------

------------
SCF SETTINGS
------------
Hamiltonian:
 Ab initio Hamiltonian  Method          .... Hartree-Fock(GTOs)


General Settings:
 Integral files         IntName         .... compound_08_hf_631gstar_gas_chelpg
 Hartree-Fock type      HFTyp           .... RHF
 Total Charge           Charge          ....    0
 Multiplicity           Mult            ....    1
 Number of Electrons    NEL             ....  448
 Basis Dimension        Dim             ....  896
 Nuclear Repulsion      ENuc            ....   9669.9699831835 Eh

Convergence Acceleration:
 AO-DIIS                CNVDIIS         .... on
   Start iteration      DIISMaxIt       ....    12
   Startup error        DIISStart       ....  0.200000
   # of expansion vecs  DIISMaxEq       ....     5
   Bias factor          DIISBfac        ....   1.050
   Max. coefficient     DIISMaxC        ....  10.000
 MO-DIIS                CNVKDIIS        .... off
 Trust-Rad. Augm. Hess. CNVTRAH         .... auto
   Auto Start mean grad. ratio tolernc. ....  1.125000
   Auto Start start iteration           ....    50
   Auto Start num. interpolation iter.  ....    10
   Max. Number of Micro iterations      ....    24
   Max. Number of Macro iterations      .... Maxiter - #DIIS iter
   Number of Davidson start vectors     ....     2
   Converg. threshold    (grad. norm)   ....   1.000e-05
   Grad. Scal. Fac. for Micro threshold ....   0.100
   Minimum threshold for Micro iter.    ....   1.000e-02
   NR start threshold (gradient norm)   ....   1.000e-04
   Initial trust radius                 ....   0.400
   Minimum AH scaling param. (alpha)    ....   1.000
   Maximum AH scaling param. (alpha)    .... 1000.000
   Quad. conv. algorithm                .... NR
   White noise on init. David. guess    .... on
   Maximum white noise                  ....   0.010
   Pseudo random numbers                .... off
   Inactive MOs                         .... canonical
   Orbital update algorithm             .... Taylor
   Preconditioner                       .... Diag
   Full preconditioner red. dimension   ....   250
 SOSCF                 CNVSOSCF           .... on
   Start iteration     SOSCFMaxIt         ....   150
   Startup grad/error  SOSCFStart         ....  0.003300
   Hessian update      SOSCFHessUp        .... L-BFGS
   Autom. constraints  SOSCFAutoConstrain .... off
 Level Shifting         CNVShift        .... on
   Level shift para.    LevelShift      ....    0.2500
   Turn off err/grad.   ShiftErr        ....    0.0010
 Zerner damping         CNVZerner       .... off
 Static damping         CNVDamp         .... on
   Fraction old density DampFac         ....    0.7000
   Max. Damping (<1)    DampMax         ....    0.9800
   Min. Damping (>=0)   DampMin         ....    0.0000
   Turn off err/grad.   DampErr         ....    0.1000

SCF Procedure:
 Maximum # iterations   MaxIter         ....   125
 SCF integral mode      SCFMode         .... Direct
   Integral package                     .... SHARK and LIBINT hybrid scheme
 Reset frequency        DirectResetFreq ....    20
 Integral Threshold     Thresh          ....  2.500e-11 Eh
 Primitive CutOff       TCut            ....  2.500e-12 Eh

Convergence Tolerance:
 Convergence Check Mode ConvCheckMode   .... Total+1el-Energy
 Convergence forced     ConvForced      .... 0
 Energy Change          TolE            ....  1.000e-08 Eh
 1-El. energy change                    ....  1.000e-05 Eh
 Orbital Gradient       TolG            ....  1.000e-05
 Orbital Rotation angle TolX            ....  1.000e-05
 DIIS Error             TolErr          ....  5.000e-07

------------------------------
INITIAL GUESS: MODEL POTENTIAL
------------------------------
Loading Hartree-Fock densities                     ... done
Calculating cut-offs                               ... done
Initializing the effective Hamiltonian             ... done
Setting up the integral package (SHARK)            ... done
Starting the Coulomb interaction                   ... done (   1.1 sec)
Making the grid                                    ... done (   0.8 sec)
Mapping shells                                     ... done
Starting the XC term evaluation                    ... done (   0.1 sec)
Transforming the Hamiltonian                       ... done (   0.1 sec)
Diagonalizing the Hamiltonian                      ... done (   0.1 sec)
Back transforming the eigenvectors                 ... done (   0.0 sec)
Now organizing SCF variables                       ... done
                      ------------------
                      INITIAL GUESS DONE (   2.3 sec)
                      ------------------
             **** ENERGY FILE WAS UPDATED (compound_08_hf_631gstar_gas_chelpg.en.tmp) ****
Finished Guess after   2.9 sec
Maximum memory used throughout the entire GUESS-calculation: 74.1 MB


           ************************************************************
           *        Program running with 8 parallel MPI-processes     *
           *              working on a common directory               *
           ************************************************************

-------------------------------------------------------------------------------------------
                                      ORCA LEAN-SCF
                              memory conserving SCF solver
-------------------------------------------------------------------------------------------

----------------------------------------D-I-I-S--------------------------------------------
Iteration    Energy (Eh)           Delta-E    RMSDP     MaxDP     DIISErr   Damp  Time(sec)
-------------------------------------------------------------------------------------------
               ***  Starting incremental Fock matrix formation  ***
    1    -3654.9240314746330114     0.00e+00  3.33e-03  6.39e-02  2.56e-01  0.700  42.4
    2    -3655.5196400646691473    -5.96e-01  2.54e-03  5.32e-02  1.57e-01  0.700  36.9
                               ***Turning on AO-DIIS***
    3    -3655.8826140515666339    -3.63e-01  1.65e-03  3.61e-02  8.92e-02  0.700  36.2
    4    -3656.1184472013846971    -2.36e-01  4.05e-03  7.96e-02  6.50e-02  0.000  35.5
    5    -3656.6628389833567780    -5.44e-01  4.59e-04  8.80e-03  9.61e-03  0.000  37.9
    6    -3656.6662862248958845    -3.45e-03  2.09e-04  3.97e-03  3.43e-03  0.000  32.6
                              *** Initializing SOSCF ***
---------------------------------------S-O-S-C-F--------------------------------------
Iteration    Energy (Eh)           Delta-E    RMSDP     MaxDP     MaxGrad    Time(sec)
--------------------------------------------------------------------------------------
    7    -3656.6670538741182099    -7.68e-04  1.35e-04  3.01e-03  2.09e-03    30.6
               *** Restarting incremental Fock matrix formation ***
    8    -3656.6673282935753377    -2.74e-04  6.21e-05  1.30e-03  7.46e-04    42.5
    9    -3656.6673883940929954    -6.01e-05  6.75e-05  2.14e-03  3.61e-04    26.7
   10    -3656.6674112019954919    -2.28e-05  1.05e-05  3.10e-04  8.09e-05    26.6
   11    -3656.6674122915519547    -1.09e-06  3.98e-06  8.97e-05  2.96e-05    22.9
   12    -3656.6674125452573207    -2.54e-07  1.70e-06  5.83e-05  1.28e-05    20.7
   13    -3656.6674125528861623    -7.63e-09  6.20e-07  1.66e-05  6.02e-06    18.4
                 **** Energy Check signals convergence ****

               *****************************************************
               *                     SUCCESS                       *
               *           SCF CONVERGED AFTER  13 CYCLES          *
               *****************************************************

             **** ENERGY FILE WAS UPDATED (compound_08_hf_631gstar_gas_chelpg.en.tmp) ****

----------------
TOTAL SCF ENERGY
----------------

Total Energy       :      -3656.66741253590226 Eh          -99502.97893 eV

Components:
Nuclear Repulsion  :       9669.96998318350416 Eh          263133.26068 eV
Electronic Energy  :     -13326.63739571940641 Eh         -362636.23961 eV
One Electron Energy:     -24302.54030832728313 Eh         -661305.74192 eV
Two Electron Energy:      10975.90291260787671 Eh          298669.50232 eV

Virial components:
Potential Energy   :      -7310.48545900962199 Eh         -198928.42267 eV
Kinetic Energy     :       3653.81804647371928 Eh           99425.44374 eV
Virial Ratio       :          2.00077983250012

---------------
SCF CONVERGENCE
---------------

  Last Energy change         ...    7.6288e-09  Tolerance :   1.0000e-08
  Last MAX-Density change    ...    1.6575e-05  Tolerance :   1.0000e-07
  Last RMS-Density change    ...    6.1950e-07  Tolerance :   5.0000e-09
  Last DIIS Error            ...    2.0895e-03  Tolerance :   5.0000e-07
  Last Orbital Gradient      ...    6.0165e-06  Tolerance :   1.0000e-05
  Last Orbital Rotation      ...    1.3927e-05  Tolerance :   1.0000e-05


----------------
ORBITAL ENERGIES
----------------

  NO   OCC          E(Eh)            E(eV) 
   0   2.0000     -91.954971     -2502.2220 
   1   2.0000     -91.863380     -2499.7297 
   2   2.0000     -20.631480      -561.4111 
   3   2.0000     -20.630511      -561.3847 
   4   2.0000     -20.626153      -561.2662 
   5   2.0000     -20.618286      -561.0521 
   6   2.0000     -20.610714      -560.8460 
   7   2.0000     -20.610079      -560.8288 
   8   2.0000     -20.609892      -560.8237 
   9   2.0000     -20.609696      -560.8183 
  10   2.0000     -20.607912      -560.7698 
  11   2.0000     -20.603097      -560.6388 
  12   2.0000     -20.600536      -560.5691 
  13   2.0000     -20.593904      -560.3886 
  14   2.0000     -20.572105      -559.7954 
  15   2.0000     -20.567854      -559.6798 
  16   2.0000     -20.564910      -559.5996 
  17   2.0000     -20.558229      -559.4178 
  18   2.0000     -20.552057      -559.2499 
  19   2.0000     -20.551661      -559.2391 
  20   2.0000     -20.547532      -559.1268 
  21   2.0000     -15.643977      -425.6942 
  22   2.0000     -15.641887      -425.6374 
  23   2.0000     -15.603230      -424.5855 
  24   2.0000     -11.406865      -310.3966 
  25   2.0000     -11.405584      -310.3617 
  26   2.0000     -11.399961      -310.2087 
  27   2.0000     -11.393779      -310.0405 
  28   2.0000     -11.388557      -309.8984 
  29   2.0000     -11.388059      -309.8848 
  30   2.0000     -11.385196      -309.8069 
  31   2.0000     -11.376839      -309.5795 
  32   2.0000     -11.375065      -309.5312 
  33   2.0000     -11.364521      -309.2443 
  34   2.0000     -11.345694      -308.7320 
  35   2.0000     -11.328548      -308.2655 
  36   2.0000     -11.322335      -308.0964 
  37   2.0000     -11.318928      -308.0037 
  38   2.0000     -11.317965      -307.9775 
  39   2.0000     -11.315638      -307.9142 
  40   2.0000     -11.310486      -307.7740 
  41   2.0000     -11.309881      -307.7575 
  42   2.0000     -11.308403      -307.7173 
  43   2.0000     -11.308069      -307.7082 
  44   2.0000     -11.302406      -307.5541 
  45   2.0000     -11.301708      -307.5351 
  46   2.0000     -11.299116      -307.4646 
  47   2.0000     -11.298423      -307.4457 
  48   2.0000     -11.295025      -307.3533 
  49   2.0000     -11.268871      -306.6416 
  50   2.0000     -11.257225      -306.3247 
  51   2.0000     -11.254764      -306.2577 
  52   2.0000     -11.245521      -306.0062 
  53   2.0000     -11.239393      -305.8394 
  54   2.0000     -11.238154      -305.8057 
  55   2.0000     -11.237310      -305.7827 
  56   2.0000     -11.237177      -305.7791 
  57   2.0000      -8.970832      -244.1088 
  58   2.0000      -8.879153      -241.6140 
  59   2.0000      -6.652825      -181.0326 
  60   2.0000      -6.651499      -180.9965 
  61   2.0000      -6.649544      -180.9433 
  62   2.0000      -6.562070      -178.5630 
  63   2.0000      -6.558754      -178.4728 
  64   2.0000      -6.558098      -178.4549 
  65   2.0000      -1.497088       -40.7378 
  66   2.0000      -1.493131       -40.6301 
  67   2.0000      -1.485571       -40.4244 
  68   2.0000      -1.484138       -40.3854 
  69   2.0000      -1.482304       -40.3356 
  70   2.0000      -1.472452       -40.0675 
  71   2.0000      -1.467219       -39.9251 
  72   2.0000      -1.461514       -39.7698 
  73   2.0000      -1.455324       -39.6014 
  74   2.0000      -1.436681       -39.0941 
  75   2.0000      -1.391025       -37.8517 
  76   2.0000      -1.387920       -37.7672 
  77   2.0000      -1.385779       -37.7090 
  78   2.0000      -1.378425       -37.5089 
  79   2.0000      -1.375244       -37.4223 
  80   2.0000      -1.374323       -37.3972 
  81   2.0000      -1.372862       -37.3575 
  82   2.0000      -1.365618       -37.1604 
  83   2.0000      -1.361778       -37.0559 
  84   2.0000      -1.359282       -36.9879 
  85   2.0000      -1.266142       -34.4535 
  86   2.0000      -1.167286       -31.7635 
  87   2.0000      -1.135536       -30.8995 
  88   2.0000      -1.128487       -30.7077 
  89   2.0000      -1.113352       -30.2958 
  90   2.0000      -1.107593       -30.1391 
  91   2.0000      -1.083278       -29.4775 
  92   2.0000      -1.057449       -28.7746 
  93   2.0000      -1.051933       -28.6246 
  94   2.0000      -1.040842       -28.3228 
  95   2.0000      -1.036060       -28.1926 
  96   2.0000      -1.032708       -28.1014 
  97   2.0000      -1.026676       -27.9373 
  98   2.0000      -1.012074       -27.5399 
  99   2.0000      -1.007151       -27.4060 
 100   2.0000      -1.004722       -27.3399 
 101   2.0000      -0.973665       -26.4948 
 102   2.0000      -0.963625       -26.2216 
 103   2.0000      -0.952179       -25.9101 
 104   2.0000      -0.929245       -25.2861 
 105   2.0000      -0.925071       -25.1725 
 106   2.0000      -0.908045       -24.7091 
 107   2.0000      -0.903261       -24.5790 
 108   2.0000      -0.885903       -24.1066 
 109   2.0000      -0.884637       -24.0722 
 110   2.0000      -0.846684       -23.0395 
 111   2.0000      -0.839565       -22.8457 
 112   2.0000      -0.831430       -22.6244 
 113   2.0000      -0.817417       -22.2431 
 114   2.0000      -0.815974       -22.2038 
 115   2.0000      -0.809943       -22.0397 
 116   2.0000      -0.799479       -21.7549 
 117   2.0000      -0.796549       -21.6752 
 118   2.0000      -0.791255       -21.5311 
 119   2.0000      -0.783680       -21.3250 
 120   2.0000      -0.777020       -21.1438 
 121   2.0000      -0.774002       -21.0617 
 122   2.0000      -0.767815       -20.8933 
 123   2.0000      -0.755185       -20.5496 
 124   2.0000      -0.745101       -20.2752 
 125   2.0000      -0.742486       -20.2041 
 126   2.0000      -0.734452       -19.9854 
 127   2.0000      -0.729850       -19.8602 
 128   2.0000      -0.721256       -19.6264 
 129   2.0000      -0.718584       -19.5537 
 130   2.0000      -0.716481       -19.4964 
 131   2.0000      -0.710489       -19.3334 
 132   2.0000      -0.708255       -19.2726 
 133   2.0000      -0.706342       -19.2206 
 134   2.0000      -0.699942       -19.0464 
 135   2.0000      -0.697052       -18.9677 
 136   2.0000      -0.693139       -18.8613 
 137   2.0000      -0.691857       -18.8264 
 138   2.0000      -0.690185       -18.7809 
 139   2.0000      -0.688063       -18.7231 
 140   2.0000      -0.685165       -18.6443 
 141   2.0000      -0.683301       -18.5936 
 142   2.0000      -0.679193       -18.4818 
 143   2.0000      -0.673728       -18.3331 
 144   2.0000      -0.671288       -18.2667 
 145   2.0000      -0.667881       -18.1740 
 146   2.0000      -0.665480       -18.1086 
 147   2.0000      -0.661157       -17.9910 
 148   2.0000      -0.659498       -17.9459 
 149   2.0000      -0.654391       -17.8069 
 150   2.0000      -0.651544       -17.7294 
 151   2.0000      -0.647253       -17.6126 
 152   2.0000      -0.643520       -17.5111 
 153   2.0000      -0.637306       -17.3420 
 154   2.0000      -0.632892       -17.2219 
 155   2.0000      -0.630344       -17.1525 
 156   2.0000      -0.624150       -16.9840 
 157   2.0000      -0.619705       -16.8630 
 158   2.0000      -0.613812       -16.7027 
 159   2.0000      -0.610149       -16.6030 
 160   2.0000      -0.604607       -16.4522 
 161   2.0000      -0.602202       -16.3868 
 162   2.0000      -0.596872       -16.2417 
 163   2.0000      -0.593664       -16.1544 
 164   2.0000      -0.592651       -16.1269 
 165   2.0000      -0.588553       -16.0154 
 166   2.0000      -0.587379       -15.9834 
 167   2.0000      -0.585895       -15.9430 
 168   2.0000      -0.582539       -15.8517 
 169   2.0000      -0.581562       -15.8251 
 170   2.0000      -0.580191       -15.7878 
 171   2.0000      -0.577993       -15.7280 
 172   2.0000      -0.574808       -15.6413 
 173   2.0000      -0.570754       -15.5310 
 174   2.0000      -0.568274       -15.4635 
 175   2.0000      -0.568002       -15.4561 
 176   2.0000      -0.563849       -15.3431 
 177   2.0000      -0.561889       -15.2898 
 178   2.0000      -0.559904       -15.2358 
 179   2.0000      -0.559015       -15.2116 
 180   2.0000      -0.557067       -15.1586 
 181   2.0000      -0.554269       -15.0824 
 182   2.0000      -0.548978       -14.9384 
 183   2.0000      -0.547783       -14.9059 
 184   2.0000      -0.543108       -14.7787 
 185   2.0000      -0.540068       -14.6960 
 186   2.0000      -0.535931       -14.5834 
 187   2.0000      -0.535504       -14.5718 
 188   2.0000      -0.532109       -14.4794 
 189   2.0000      -0.528057       -14.3692 
 190   2.0000      -0.526072       -14.3152 
 191   2.0000      -0.521143       -14.1810 
 192   2.0000      -0.519322       -14.1315 
 193   2.0000      -0.515060       -14.0155 
 194   2.0000      -0.510563       -13.8931 
 195   2.0000      -0.506056       -13.7705 
 196   2.0000      -0.503616       -13.7041 
 197   2.0000      -0.501194       -13.6382 
 198   2.0000      -0.500102       -13.6085 
 199   2.0000      -0.494345       -13.4518 
 200   2.0000      -0.488844       -13.3021 
 201   2.0000      -0.486314       -13.2333 
 202   2.0000      -0.483363       -13.1530 
 203   2.0000      -0.479727       -13.0540 
 204   2.0000      -0.475215       -12.9313 
 205   2.0000      -0.473908       -12.8957 
 206   2.0000      -0.470240       -12.7959 
 207   2.0000      -0.466001       -12.6805 
 208   2.0000      -0.462885       -12.5957 
 209   2.0000      -0.457753       -12.4561 
 210   2.0000      -0.454049       -12.3553 
 211   2.0000      -0.452309       -12.3080 
 212   2.0000      -0.451002       -12.2724 
 213   2.0000      -0.448623       -12.2076 
 214   2.0000      -0.445336       -12.1182 
 215   2.0000      -0.443426       -12.0662 
 216   2.0000      -0.435976       -11.8635 
 217   2.0000      -0.435078       -11.8391 
 218   2.0000      -0.430386       -11.7114 
 219   2.0000      -0.428120       -11.6497 
 220   2.0000      -0.383966       -10.4483 
 221   2.0000      -0.374683       -10.1956 
 222   2.0000      -0.314198        -8.5498 
 223   2.0000      -0.306712        -8.3460 
 224   0.0000       0.103615         2.8195 
 225   0.0000       0.157160         4.2765 
 226   0.0000       0.162339         4.4175 
 227   0.0000       0.170518         4.6400 
 228   0.0000       0.171645         4.6707 
 229   0.0000       0.176336         4.7983 
 230   0.0000       0.183243         4.9863 
 231   0.0000       0.185438         5.0460 
 232   0.0000       0.185521         5.0483 
 233   0.0000       0.186766         5.0822 
 234   0.0000       0.199914         5.4399 
*Only the first 10 virtual orbitals were printed.

                    ********************************
                    * MULLIKEN POPULATION ANALYSIS *
                    ********************************

-----------------------
MULLIKEN ATOMIC CHARGES
-----------------------
   0 S :   -0.359809
   1 C :    0.535165
   2 N :   -0.911261
   3 N :   -0.621588
   4 N :   -0.310096
   5 C :    0.273136
   6 C :   -0.358954
   7 C :   -0.369107
   8 S :    0.176884
   9 C :   -0.044284
  10 C :    0.155363
  11 O :   -0.668290
  12 C :    0.814515
  13 C :   -0.585084
  14 O :   -0.586614
  15 C :    0.130539
  16 O :   -0.695646
  17 C :    0.835577
  18 C :   -0.599526
  19 O :   -0.584679
  20 C :    0.145935
  21 O :   -0.709168
  22 C :    0.501847
  23 C :    0.131522
  24 O :   -0.686302
  25 C :    0.815313
  26 C :   -0.613932
  27 O :   -0.584686
  28 C :    0.131995
  29 O :   -0.681929
  30 C :    0.818738
  31 C :   -0.592146
  32 O :   -0.592976
  33 C :    0.145061
  34 O :   -0.682705
  35 C :    0.824481
  36 C :   -0.590351
  37 O :   -0.594471
  38 C :    0.099720
  39 C :   -0.035797
  40 O :   -0.664571
  41 C :    0.825923
  42 C :   -0.583986
  43 O :   -0.589179
  44 O :   -0.716828
  45 C :    0.123558
  46 C :   -0.001137
  47 O :   -0.668160
  48 C :    0.810666
  49 C :   -0.610883
  50 O :   -0.587095
  51 O :   -0.688084
  52 C :    0.046988
  53 O :   -0.662950
  54 C :    0.430189
  55 O :   -0.672276
  56 C :    0.001852
  57 H :    0.433243
  58 H :    0.432982
  59 H :    0.455398
  60 H :    0.221968
  61 H :    0.225894
  62 H :    0.216345
  63 H :    0.248730
  64 H :    0.235419
  65 H :    0.220849
  66 H :    0.215933
  67 H :    0.213673
  68 H :    0.272786
  69 H :    0.218378
  70 H :    0.216894
  71 H :    0.212377
  72 H :    0.202283
  73 H :    0.209324
  74 H :    0.250358
  75 H :    0.207178
  76 H :    0.255436
  77 H :    0.205485
  78 H :    0.264739
  79 H :    0.205660
  80 H :    0.232933
  81 H :    0.207968
  82 H :    0.249065
  83 H :    0.201591
  84 H :    0.234959
  85 H :    0.208432
  86 H :    0.256106
  87 H :    0.225933
  88 H :    0.205393
  89 H :    0.208521
  90 H :    0.211473
  91 H :    0.208265
  92 H :    0.229213
  93 H :    0.214231
  94 H :    0.221630
  95 H :    0.217449
  96 H :    0.245743
  97 H :    0.204416
  98 H :    0.270710
  99 H :    0.240212
 100 H :    0.186325
 101 H :    0.207685
Sum of atomic charges:   -0.0000000

--------------------------------
MULLIKEN REDUCED ORBITAL CHARGES
--------------------------------
  0 S s       :     5.921655  s :     5.921655
      pz      :     3.494872  p :    10.388180
      px      :     3.606921
      py      :     3.286387
      dz2     :     0.004419  d :     0.049975
      dxz     :     0.009957
      dyz     :     0.014479
      dx2y2   :     0.005164
      dxy     :     0.015956

  1 C s       :     3.029576  s :     3.029576
      pz      :     0.753123  p :     2.329903
      px      :     0.780825
      py      :     0.795955
      dz2     :     0.021717  d :     0.105356
      dxz     :     0.020094
      dyz     :     0.013734
      dx2y2   :     0.028377
      dxy     :     0.021434

  2 N s       :     3.615639  s :     3.615639
      pz      :     1.520230  p :     4.262779
      px      :     1.320680
      py      :     1.421869
      dz2     :     0.004835  d :     0.032844
      dxz     :     0.005257
      dyz     :     0.005502
      dx2y2   :     0.009418
      dxy     :     0.007833

  3 N s       :     3.550738  s :     3.550738
      pz      :     1.509843  p :     4.014581
      px      :     1.137967
      py      :     1.366771
      dz2     :     0.006637  d :     0.056268
      dxz     :     0.010711
      dyz     :     0.009988
      dx2y2   :     0.014763
      dxy     :     0.014168

  4 N s       :     3.668174  s :     3.668174
      pz      :     1.206460  p :     3.578791
      px      :     1.177812
      py      :     1.194519
      dz2     :     0.006932  d :     0.063131
      dxz     :     0.017140
      dyz     :     0.009620
      dx2y2   :     0.014953
      dxy     :     0.014487

  5 C s       :     3.061338  s :     3.061338
      pz      :     0.891458  p :     2.596408
      px      :     0.796267
      py      :     0.908684
      dz2     :     0.005286  d :     0.069117
      dxz     :     0.018049
      dyz     :     0.005725
      dx2y2   :     0.016817
      dxy     :     0.023239

  6 C s       :     3.288186  s :     3.288186
      pz      :     0.988227  p :     3.018929
      px      :     1.032228
      py      :     0.998474
      dz2     :     0.006483  d :     0.051839
      dxz     :     0.015278
      dyz     :     0.010610
      dx2y2   :     0.003833
      dxy     :     0.015635

  7 C s       :     3.318654  s :     3.318654
      pz      :     1.007984  p :     2.994680
      px      :     0.965381
      py      :     1.021315
      dz2     :     0.003985  d :     0.055772
      dxz     :     0.014008
      dyz     :     0.018082
      dx2y2   :     0.008014
      dxy     :     0.011683

  8 S s       :     5.832607  s :     5.832607
      pz      :     3.214436  p :     9.917564
      px      :     3.232843
      py      :     3.470284
      dz2     :     0.008439  d :     0.072945
      dxz     :     0.024207
      dyz     :     0.020805
      dx2y2   :     0.006333
      dxy     :     0.013161

  9 C s       :     3.233156  s :     3.233156
      pz      :     0.839759  p :     2.725730
      px      :     1.006617
      py      :     0.879354
      dz2     :     0.011688  d :     0.085399
      dxz     :     0.022653
      dyz     :     0.022877
      dx2y2   :     0.008732
      dxy     :     0.019449

 10 C s       :     3.137050  s :     3.137050
      pz      :     0.829064  p :     2.626445
      px      :     0.897420
      py      :     0.899961
      dz2     :     0.013308  d :     0.081142
      dxz     :     0.015479
      dyz     :     0.025799
      dx2y2   :     0.008606
      dxy     :     0.017950

 11 O s       :     3.883000  s :     3.883000
      pz      :     1.619566  p :     4.753957
      px      :     1.621206
      py      :     1.513186
      dz2     :     0.007663  d :     0.031333
      dxz     :     0.005465
      dyz     :     0.007880
      dx2y2   :     0.003881
      dxy     :     0.006443

 12 C s       :     2.949531  s :     2.949531
      pz      :     0.814395  p :     2.088587
      px      :     0.631048
      py      :     0.643143
      dz2     :     0.040762  d :     0.147367
      dxz     :     0.030863
      dyz     :     0.036724
      dx2y2   :     0.018024
      dxy     :     0.020994

 13 C s       :     3.352581  s :     3.352581
      pz      :     0.981291  p :     3.188303
      px      :     1.117579
      py      :     1.089432
      dz2     :     0.006334  d :     0.044200
      dxz     :     0.010804
      dyz     :     0.010360
      dx2y2   :     0.004609
      dxy     :     0.012094

 14 O s       :     3.882698  s :     3.882698
      pz      :     1.421066  p :     4.671129
      px      :     1.582213
      py      :     1.667850
      dz2     :     0.009656  d :     0.032787
      dxz     :     0.010421
      dyz     :     0.009403
      dx2y2   :     0.002237
      dxy     :     0.001070

 15 C s       :     3.157706  s :     3.157706
      pz      :     1.061656  p :     2.631925
      px      :     0.749275
      py      :     0.820994
      dz2     :     0.011417  d :     0.079830
      dxz     :     0.011420
      dyz     :     0.020426
      dx2y2   :     0.013641
      dxy     :     0.022926

 16 O s       :     3.882481  s :     3.882481
      pz      :     1.480411  p :     4.782720
      px      :     1.651572
      py      :     1.650737
      dz2     :     0.012063  d :     0.030445
      dxz     :     0.004242
      dyz     :     0.004708
      dx2y2   :     0.002467
      dxy     :     0.006964

 17 C s       :     2.946566  s :     2.946566
      pz      :     0.628692  p :     2.070271
      px      :     0.727754
      py      :     0.713824
      dz2     :     0.053690  d :     0.147586
      dxz     :     0.033326
      dyz     :     0.032256
      dx2y2   :     0.012230
      dxy     :     0.016085

 18 C s       :     3.357886  s :     3.357886
      pz      :     1.143830  p :     3.197376
      px      :     1.018571
      py      :     1.034975
      dz2     :     0.012165  d :     0.044264
      dxz     :     0.005270
      dyz     :     0.008958
      dx2y2   :     0.005185
      dxy     :     0.012686

 19 O s       :     3.891564  s :     3.891564
      pz      :     1.559071  p :     4.660352
      px      :     1.559294
      py      :     1.541987
      dz2     :     0.006862  d :     0.032764
      dxz     :     0.008822
      dyz     :     0.008495
      dx2y2   :     0.005696
      dxy     :     0.002888

 20 C s       :     3.139677  s :     3.139677
      pz      :     0.941536  p :     2.631768
      px      :     0.805085
      py      :     0.885148
      dz2     :     0.010066  d :     0.082620
      dxz     :     0.018326
      dyz     :     0.021363
      dx2y2   :     0.008781
      dxy     :     0.024084

 21 O s       :     3.897001  s :     3.897001
      pz      :     1.800719  p :     4.782360
      px      :     1.279605
[...]
 51 O      8.6881     8.0000    -0.6881     1.6260     1.6260    -0.0000
 52 C      5.9530     6.0000     0.0470     3.5640     3.5640    -0.0000
 53 O      8.6629     8.0000    -0.6629     1.6990     1.6990    -0.0000
 54 C      5.5698     6.0000     0.4302     3.5605     3.5605    -0.0000
 55 O      8.6723     8.0000    -0.6723     1.6678     1.6678     0.0000
 56 C      5.9981     6.0000     0.0019     3.6079     3.6079     0.0000
 57 H      0.5668     1.0000     0.4332     0.7987     0.7987    -0.0000
 58 H      0.5670     1.0000     0.4330     0.7960     0.7960     0.0000
 59 H      0.5446     1.0000     0.4554     0.7806     0.7806     0.0000
 60 H      0.7780     1.0000     0.2220     0.9207     0.9207    -0.0000
 61 H      0.7741     1.0000     0.2259     0.9097     0.9097    -0.0000
 62 H      0.7837     1.0000     0.2163     0.9076     0.9076    -0.0000
 63 H      0.7513     1.0000     0.2487     0.9098     0.9098    -0.0000
 64 H      0.7646     1.0000     0.2354     0.9147     0.9147    -0.0000
 65 H      0.7792     1.0000     0.2208     0.9165     0.9165    -0.0000
 66 H      0.7841     1.0000     0.2159     0.9198     0.9198     0.0000
 67 H      0.7863     1.0000     0.2137     0.9197     0.9197     0.0000
 68 H      0.7272     1.0000     0.2728     0.9071     0.9071     0.0000
 69 H      0.7816     1.0000     0.2184     0.9200     0.9200    -0.0000
 70 H      0.7831     1.0000     0.2169     0.9207     0.9207    -0.0000
 71 H      0.7876     1.0000     0.2124     0.9200     0.9200    -0.0000
 72 H      0.7977     1.0000     0.2023     0.9202     0.9202     0.0000
 73 H      0.7907     1.0000     0.2093     0.9256     0.9256    -0.0000
 74 H      0.7496     1.0000     0.2504     0.9128     0.9128    -0.0000
 75 H      0.7928     1.0000     0.2072     0.9219     0.9219    -0.0000
 76 H      0.7446     1.0000     0.2554     0.9137     0.9137    -0.0000
 77 H      0.7945     1.0000     0.2055     0.9234     0.9234    -0.0000
 78 H      0.7353     1.0000     0.2647     0.9089     0.9089     0.0000
 79 H      0.7943     1.0000     0.2057     0.9227     0.9227    -0.0000
 80 H      0.7671     1.0000     0.2329     0.9149     0.9149     0.0000
 81 H      0.7920     1.0000     0.2080     0.9225     0.9225    -0.0000
 82 H      0.7509     1.0000     0.2491     0.9149     0.9149     0.0000
 83 H      0.7984     1.0000     0.2016     0.9233     0.9233     0.0000
 84 H      0.7650     1.0000     0.2350     0.9141     0.9141     0.0000
 85 H      0.7916     1.0000     0.2084     0.9226     0.9226     0.0000
 86 H      0.7439     1.0000     0.2561     0.8976     0.8976    -0.0000
 87 H      0.7741     1.0000     0.2259     0.9251     0.9251     0.0000
 88 H      0.7946     1.0000     0.2054     0.9243     0.9243     0.0000
 89 H      0.7915     1.0000     0.2085     0.9205     0.9205     0.0000
 90 H      0.7885     1.0000     0.2115     0.9220     0.9220    -0.0000
 91 H      0.7917     1.0000     0.2083     0.9207     0.9207    -0.0000
 92 H      0.7708     1.0000     0.2292     0.9157     0.9157     0.0000
 93 H      0.7858     1.0000     0.2142     0.9222     0.9222    -0.0000
 94 H      0.7784     1.0000     0.2216     0.9138     0.9138    -0.0000
 95 H      0.7826     1.0000     0.2174     0.9213     0.9213     0.0000
 96 H      0.7543     1.0000     0.2457     0.9150     0.9150    -0.0000
 97 H      0.7956     1.0000     0.2044     0.9217     0.9217    -0.0000
 98 H      0.7293     1.0000     0.2707     0.9060     0.9060    -0.0000
 99 H      0.7598     1.0000     0.2402     0.9115     0.9115    -0.0000
100 H      0.8137     1.0000     0.1863     0.9234     0.9234    -0.0000
101 H      0.7923     1.0000     0.2077     0.9233     0.9233    -0.0000

  Mayer bond orders larger than 0.100000
B(  0-S ,  1-C ) :   1.4528 B(  1-C ,  2-N ) :   1.1647 B(  1-C ,  3-N ) :   1.0664 
B(  2-N , 57-H ) :   0.7680 B(  2-N , 58-H ) :   0.7914 B(  3-N ,  4-N ) :   0.9975 
B(  3-N , 59-H ) :   0.7430 B(  4-N ,  5-C ) :   1.8201 B(  5-C ,  6-C ) :   0.9682 
B(  5-C , 54-C ) :   0.9292 B(  6-C ,  7-C ) :   0.9456 B(  6-C , 60-H ) :   0.9454 
B(  6-C , 61-H ) :   0.9286 B(  7-C ,  8-S ) :   0.9695 B(  7-C , 52-C ) :   0.9357 
B(  7-C , 62-H ) :   0.9245 B(  8-S ,  9-C ) :   0.9809 B(  9-C , 10-C ) :   0.9406 
B(  9-C , 51-O ) :   0.8211 B(  9-C , 63-H ) :   0.9139 B( 10-C , 11-O ) :   0.7650 
B( 10-C , 15-C ) :   0.9750 B( 10-C , 64-H ) :   0.9188 B( 11-O , 12-C ) :   0.9403 
B( 12-C , 13-C ) :   0.9655 B( 12-C , 14-O ) :   1.8035 B( 13-C , 65-H ) :   0.9285 
B( 13-C , 66-H ) :   0.9411 B( 13-C , 67-H ) :   0.9324 B( 15-C , 16-O ) :   0.7485 
B( 15-C , 20-C ) :   0.9740 B( 15-C , 68-H ) :   0.8943 B( 16-O , 17-C ) :   0.9328 
B( 17-C , 18-C ) :   0.9608 B( 17-C , 19-O ) :   1.7832 B( 18-C , 69-H ) :   0.9271 
B( 18-C , 70-H ) :   0.9417 B( 18-C , 71-H ) :   0.9328 B( 20-C , 21-O ) :   0.7990 
B( 20-C , 45-C ) :   0.9676 B( 20-C , 72-H ) :   0.9265 B( 21-O , 22-C ) :   0.8197 
B( 22-C , 23-C ) :   0.9752 B( 22-C , 44-O ) :   0.8429 B( 22-C , 73-H ) :   0.9358 
B( 23-C , 24-O ) :   0.7510 B( 23-C , 28-C ) :   0.9720 B( 23-C , 74-H ) :   0.9086 
B( 24-O , 25-C ) :   0.9240 B( 25-C , 26-C ) :   0.9637 B( 25-C , 27-O ) :   1.8084 
B( 26-C , 75-H ) :   0.9320 B( 26-C , 76-H ) :   0.9021 B( 26-C , 77-H ) :   0.9439 
B( 28-C , 29-O ) :   0.7586 B( 28-C , 33-C ) :   0.9745 B( 28-C , 78-H ) :   0.9003 
B( 29-O , 30-C ) :   0.9436 B( 30-C , 31-C ) :   0.9648 B( 30-C , 32-O ) :   1.7935 
B( 31-C , 79-H ) :   0.9346 B( 31-C , 80-H ) :   0.9230 B( 31-C , 81-H ) :   0.9436 
B( 33-C , 34-O ) :   0.7435 B( 33-C , 38-C ) :   0.9566 B( 33-C , 82-H ) :   0.9064 
B( 34-O , 35-C ) :   0.9393 B( 35-C , 36-C ) :   0.9651 B( 35-C , 37-O ) :   1.7932 
B( 36-C , 83-H ) :   0.9359 B( 36-C , 84-H ) :   0.9223 B( 36-C , 85-H ) :   0.9440 
B( 38-C , 39-C ) :   0.9696 B( 38-C , 44-O ) :   0.7816 B( 38-C , 86-H ) :   0.8914 
B( 39-C , 40-O ) :   0.7802 B( 39-C , 87-H ) :   0.9259 B( 39-C , 88-H ) :   0.9442 
B( 40-O , 41-C ) :   0.9482 B( 41-C , 42-C ) :   0.9598 B( 41-C , 43-O ) :   1.8161 
B( 42-C , 89-H ) :   0.9336 B( 42-C , 90-H ) :   0.9439 B( 42-C , 91-H ) :   0.9348 
B( 45-C , 46-C ) :   0.9612 B( 45-C , 51-O ) :   0.7792 B( 45-C , 92-H ) :   0.9144 
B( 46-C , 47-O ) :   0.7693 B( 46-C , 93-H ) :   0.9414 B( 46-C , 94-H ) :   0.9261 
B( 47-O , 48-C ) :   0.9510 B( 48-C , 49-C ) :   0.9590 B( 48-C , 50-O ) :   1.7887 
B( 49-C , 95-H ) :   0.9416 B( 49-C , 96-H ) :   0.9061 B( 49-C , 97-H ) :   0.9361 
B( 52-C , 53-O ) :   0.8130 B( 52-C , 56-C ) :   0.9463 B( 52-C , 98-H ) :   0.9126 
B( 53-O , 54-C ) :   0.8628 B( 54-C , 55-O ) :   0.8440 B( 54-C , 99-H ) :   0.9285 
B( 55-O , 56-C ) :   0.8106 B( 56-C ,100-H ) :   0.9412 B( 56-C ,101-H ) :   0.9443 


-------------------------
CHELPG CHARGES GENERATION
-------------------------
Number of atoms                    ...          102
Number of "pure atoms"             ...          102
Grid spacing                       ...     0.300000
Point Cut-Off                      ...     2.800000
Van-der-Waals Radii                ...        COSMO
Total charge                       ...            0
Dipole moment constraint           ...        FALSE
Equivalent atom charge constraint  ...        FALSE

Grid generated                     ...      0.1 sec
Grid points                        ...        45697
Potential calculated               ...      4.9 sec
RespFile stored                    ...           ok
Charges calculated                 ...      9.4 sec

CHELPG Charges            
--------------------------------
  0   S   :      -0.488778
  1   C   :       0.192113
  2   N   :      -0.539893
  3   N   :      -0.000283
  4   N   :      -0.266792
  5   C   :       0.128562
  6   C   :      -0.465688
  7   C   :       0.468469
  8   S   :      -0.380065
  9   C   :      -0.201664
 10   C   :       0.486023
 11   O   :      -0.485000
 12   C   :       0.851705
 13   C   :      -0.551614
 14   O   :      -0.610065
 15   C   :       0.244889
 16   O   :      -0.578191
 17   C   :       0.919795
 18   C   :      -0.583017
 19   O   :      -0.621000
 20   C   :      -0.048543
 21   O   :      -0.463137
 22   C   :       0.347250
 23   C   :       0.017199
 24   O   :      -0.447238
 25   C   :       0.915412
 26   C   :      -0.667808
 27   O   :      -0.612700
 28   C   :       0.221835
 29   O   :      -0.501825
 30   C   :       0.943961
 31   C   :      -0.660270
 32   O   :      -0.632787
 33   C   :       0.357888
 34   O   :      -0.582599
 35   C   :       0.996533
 36   C   :      -0.671287
 37   O   :      -0.647943
 38   C   :       0.157322
 39   C   :       0.054552
 40   O   :      -0.472066
 41   C   :       0.926565
 42   C   :      -0.642437
 43   O   :      -0.611454
 44   O   :      -0.499474
 45   C   :       0.259937
 46   C   :       0.122840
 47   O   :      -0.516256
 48   C   :       0.963812
 49   C   :      -0.671857
 50   O   :      -0.650948
 51   O   :      -0.446879
 52   C   :       0.066658
 53   O   :      -0.504900
 54   C   :       0.506893
 55   O   :      -0.406891
 56   C   :       0.010787
 57   H   :       0.311124
 58   H   :       0.347202
 59   H   :       0.180505
 60   H   :       0.135714
 61   H   :       0.214981
 62   H   :       0.004495
 63   H   :       0.219267
 64   H   :       0.036320
 65   H   :       0.166521
 66   H   :       0.161921
 67   H   :       0.173010
 68   H   :       0.163929
 69   H   :       0.179076
 70   H   :       0.162832
 71   H   :       0.175409
 72   H   :       0.131153
 73   H   :       0.123013
 74   H   :       0.118802
 75   H   :       0.193915
 76   H   :       0.217165
 77   H   :       0.170212
 78   H   :       0.118376
 79   H   :       0.190330
 80   H   :       0.207457
 81   H   :       0.171424
 82   H   :       0.048241
 83   H   :       0.188400
 84   H   :       0.211325
 85   H   :       0.172296
 86   H   :       0.102248
 87   H   :       0.092791
 88   H   :       0.086556
 89   H   :       0.186227
 90   H   :       0.174525
 91   H   :       0.182995
 92   H   :       0.102867
 93   H   :       0.097598
 94   H   :       0.072315
 95   H   :       0.181072
 96   H   :       0.226505
 97   H   :       0.183721
 98   H   :       0.141662
 99   H   :       0.068633
100   H   :       0.085156
101   H   :       0.091062
--------------------------------
Total charge:    -0.000000
--------------------------------

CHELPG charges calculated...

Timings:
Grid generation                 ...        0.068 sec (=   0.001 min)
Potential calculation           ...        4.870 sec (=   0.081 min)
Fit to the potential            ...        9.373 sec (=   0.156 min)
------------------------------------------------------------------------------

-------
TIMINGS
-------

Total SCF time: 0 days 0 hours 7 min 21 sec 

Total time                  ....     441.699 sec
Sum of individual times     ....     425.525 sec  ( 96.3%)

SCF preparation             ....       0.494 sec  (  0.1%)
Fock matrix formation       ....     405.515 sec  ( 91.8%)
  Startup                   ....       0.065 sec  (  0.0% of F)
  Coulomb+Exchange Fock     ....     421.384 sec  (103.9% of F)
Diagonalization             ....       0.000 sec  (  0.0%)
Density matrix formation    ....       0.440 sec  (  0.1%)
Total Energy calculation    ....       0.173 sec  (  0.0%)
Population analysis         ....      14.565 sec  (  3.3%)
Orbital Transformation      ....       0.431 sec  (  0.1%)
Orbital Orthonormalization  ....       0.000 sec  (  0.0%)
DIIS solution               ....       2.531 sec  (  0.6%)
SOSCF solution              ....       1.375 sec  (  0.3%)
Finished LeanSCF after 441.8 sec

Maximum memory used throughout the entire LEANSCF-calculation: 97.3 MB

-------------------------   --------------------
FINAL SINGLE POINT ENERGY     -3656.667412535902
-------------------------   --------------------



           ************************************************************
           *        Program running with 8 parallel MPI-processes     *
           *              working on a common directory               *
           ************************************************************

------------------------------------------------------------------------------
                              ORCA PROPERTY CALCULATIONS
------------------------------------------------------------------------------

GBWName                                 ... compound_08_hf_631gstar_gas_chelpg.gbw
Number of atoms                         ...    102
Number of basis functions               ...    896
Max core memory                         ...   3000 MB

Electric properties:
Dipole moment                           ... YES
Quadrupole moment                       ...  NO
Static polarizability (Dipole/Dipole)   ...  NO
Static polarizability (Dipole/Quad.)    ...  NO
Static polarizability (Quad./Quad.)     ...  NO
Static polarizability (Velocity)        ...  NO
Static hyperpolarizability              ...  NO

Atomic electric properties:
Dipole moment                           ...  NO
Quadrupole moment                       ...  NO
Static polarizability                   ...  NO

Choice of electric origin               ... Center of mass
Position of electric origin             ...     0.706169     0.143782     0.087065

General magnetic properties:
Magnetizability                         ...  NO

EPR properties:
g-Tensor (aka g-matrix)                 ...  NO
Zero-Field splitting spin-orbit         ...  NO
Zero-field splitting spin-spin          ...  NO
Hyperfine couplings                     ...  NO (   0 nuclei)
Quadrupole couplings                    ...  NO (   0 nuclei)
Contact density                         ...  NO (   0 nuclei)

NMR properties:
Chemical shifts                         ...  NO (   0 nuclei)
Spin-rotation constants                 ...  NO (   0 nuclei)
Spin-spin couplings                     ...  NO (   0 nuclei,    0 pairs)

Choice of magnetic origin               ... GIAO
Position of magnetic origin             ...     0.000000     0.000000     0.000000

Properties with geometric perturbations:
SCF Hessian                             ...  NO
IR spectrum                             ...  NO
VCD spectrum                            ...  NO
X-ray spectroscopy properties:
SCF XES/XAS/RIXS spectra                ...  NO

SCF SOC stabilization energy            ...  NO
Diagonal Born-Oppenheimer correction    ...  NO

-------------
DIPOLE MOMENT
-------------

Method             : SCF
Type of density    : Electron Density
Multiplicity       :   1
Irrep              :   0
Energy             : -3656.6674125359022582 Eh
Basis              : AO
                                X                 Y                 Z
Electronic contribution:     22.468154231       2.662963410       3.877945951
Nuclear contribution   :    -23.695621652      -4.831478607      -4.799363401
                        -----------------------------------------
Total Dipole Moment    :     -1.227467421      -2.168515197      -0.921417449
                        -----------------------------------------
Magnitude (a.u.)       :      2.656716873
Magnitude (Debye)      :      6.752837634



--------------------
Rotational spectrum 
--------------------
 
Rotational constants in cm-1:             0.001984             0.000779             0.000684 
Rotational constants in MHz :            59.481664            23.365409            20.519499 

Dipole components along the rotational axes: 
x,y,z [a.u.] :    -1.401543    -2.256692    -0.034123 
x,y,z [Debye]:    -3.562438    -5.736055    -0.086734 

 

Dipole moment calculation done in   0.0 sec 

Maximum memory used throughout the entire PROP-calculation: 80.7 MB

--------------------------------
SUGGESTED CITATIONS FOR THIS RUN
--------------------------------

Below you find a list of papers that are relevant to this ORCA run
We neither can nor want to force you to cite these papers, but we appreciate if you do
You receive ORCA, which is the product of decades of hard work by many enthusiastic individuals, for free
The only thing we kindly ask in return is that you cite our papers,
We deeply appreciate it, if you show your appreciation for ORCA by not just citing the generic ORCA reference.

Please note that relegating all ORCA citations to the supporting information does *not* help us.
SI sections are not indexed - citations you put there will not count into any citation statistics
But we need these citations in order to attract the funding resources that allow us to do what we are doing

Therefore, if you are a happy ORCA user, please consider citing a few of the papers listed below in the main body of your paper

In addition to the list printed below, the program has created the file compound_08_hf_631gstar_gas_chelpg.bibtex that contains the list in bibtex format
You can import this file easily into all common literature databanks and citation aid programs

It goes without saying that in many instances, there are alternative algorithms to achieve similar
results as the ones you have gotten from ORCA. It is, of course, also the case that in some instances
ORCA just re-implements algorithms worked out by others. We are fully aware of that and we are also
fully appreciative of our colleagues work. Hence this citation list should not be read as indicating
that the listed papers, which are focused on our own work, are the only ones worth citing. It simply
meant to make it easier for users to cite ORCA specific papers. It is not a substitute for doing your
own literature research and citing the relevant literature in a scientifically appropriate manner.

List of essential papers. We consider these as the minimum necessary citations

  1. Neese, F.
     Software update: the ORCA program system, version 6.0
     WIRES Comput. Molec. Sci. 2025 15(1), e70019
     doi.org/10.1002/wcms.70019

List of papers to cite with high priority. The work reported in these papers was absolutely
necessary for this run to complete.
Our perspective: the developers of density functionals and basis sets usually get cited in chemistry papers
Good! But without the algorithms to do something with them, the functionals or basis sets would not do anything.
Hence, in our opinion, the algorithm design and method developments papers are equally worthy of getting cited

  1. Neese, F.
     The SHARK Integral Generation and Digestion System
     J. Comp. Chem. 2022 44(3), 381
     doi.org/10.1002/jcc.26942

List of suggested additional citations. These are papers that are important in the 'surrounding' of 
of this run, or papers that preceded the highly important papers. If you like your results we are grateful for a citation.

  1. Neese, F.
     The ORCA program system
     WIRES Comput. Molec. Sci. 2012 2(1), 73-78
     doi.org/10.1002/wcms.81
  2. Neese, F.
     Software update: the ORCA program system, version 4.0
     WIRES Comput. Molec. Sci. 2018 8(1), 1-6
     doi.org/10.1002/wcms.1327
  3. Neese, F.; Wennmohs, F.; Becker, U.; Riplinger, C.
     The ORCA quantum chemistry program package
     J. Chem. Phys. 2020 152(22), 224108
     doi.org/10.1063/5.0004608
  4. Neese, F.
     Software update: The ORCA program system—Version 5.0
     WIRES Comput. Molec. Sci. 2022 12(1), e1606
     doi.org/10.1002/wcms.1606

List of optional additional citations

  1. Neese, F.
     Approximate second-order SCF convergence for spin unrestricted wavefunctions
     Chem. Phys. Lett. 2000 325(1-3), 93-98
     doi.org/10.1016/s0009-2614(00)00662-x

Timings for individual modules:

Sum of individual times          ...      450.100 sec (=   7.502 min)
Startup calculation              ...        4.304 sec (=   0.072 min)   1.0 %
SCF iterations                   ...      445.033 sec (=   7.417 min)  98.9 %
Property calculations            ...        0.763 sec (=   0.013 min)   0.2 %
                             ****ORCA TERMINATED NORMALLY****
TOTAL RUN TIME: 0 days 0 hours 7 minutes 30 seconds 676 msec
