
                                 *****************
                                 * O   R   C   A *
                                 *****************

                                            #,                                       
                                            ###                                      
                                            ####                                     
                                            #####                                    
                                            ######                                   
                                           ########,                                 
                                     ,,################,,,,,                         
                               ,,#################################,,                 
                          ,,##########################################,,             
                       ,#########################################, ''#####,          
                    ,#############################################,,   '####,        
                  ,##################################################,,,,####,       
                ,###########''''           ''''###############################       
              ,#####''   ,,,,##########,,,,          '''####'''          '####       
            ,##' ,,,,###########################,,,                        '##       
           ' ,,###''''                  '''############,,,                           
         ,,##''                                '''############,,,,        ,,,,,,###''
      ,#''                                            '''#######################'''  
     '                                                          ''''####''''         
             ,#######,   #######,   ,#######,      ##                                
            ,#'     '#,  ##    ##  ,#'     '#,    #''#        ,####,    ,#,          
            ##       ##  ##   ,#'  ##            #'  '#       #'       ,# #          
            ##       ##  #######   ##           ,######,      #####,      #          
            '#,     ,#'  ##    ##  '#,     ,#' ,#      #,     #,   #      #          
             '#######'   ##     ##  '#######'  #'      '#     '####' #    #          



                #########################################################
                #                        -***-                          #
                #          Department of theory and spectroscopy        #
                #                                                       #
                #                      Frank Neese                      #
                #                                                       #
                #     Directorship, Architecture, Infrastructure        #
                #                    SHARK, DRIVERS                     #
                #        Core code/Algorithms in most modules           #
                #                                                       #
                #        Max Planck Institute fuer Kohlenforschung      #
                #                Kaiser Wilhelm Platz 1                 #
                #                 D-45470 Muelheim/Ruhr                 #
                #                      Germany                          #
                #                                                       #
                #                  All rights reserved                  #
                #                        -***-                          #
                #########################################################


                         Program Version 6.1.1  -  RELEASE   -
                                (GIT: $487d211c$)
                          ($2025-11-21 10:33:24 +0100$)


 With contributions from (in alphabetic order):
[Max-Planck-Institut fuer Kohlenforschung]                               
  Daniel Aravena         : Magnetic Suceptibility                        
  Michael Atanasov       : Ab Initio Ligand Field Theory (pilot matlab implementation)
  Alexander A. Auer      : GIAO ZORA, VPT2 properties, NMR spectrum      
  Ute Becker             : All parallelization in ORCA, NUMFREQ, NUMCALC 
  Giovanni Bistoni       : ED, misc. LED, open-shell LED, HFLD           
  Dmytro Bykov           : pre 5.0 version of the SCF Hessian            
  Marcos Casanova-Páez   : Triplet and SCS-CIS(D). UHF-(DLPNO)-IP/EA/STEOM-CCSD. UHF-CVS-IP/STEOM-CCSD   
  Vijay G. Chilkuri      : MRCI spin determinant printing, contributions to CSF-ICE 
  Pauline Colinet        : FMM embedding                                 
  Dipayan Datta          : RHF DLPNO-CCSD density                        
  Achintya Kumar Dutta   : EOM-CC, STEOM-CC                              
  Nicolas Foglia         : Exact transition moments, OPA infrastructure, MCD improvements    
  Dmitry Ganyushin       : Spin-Orbit,Spin-Spin,Magnetic field MRCI      
  Miquel Garcia-Rates    : C-PCM and meta-GGA Hessian, CCSD/C-PCM, Gaussian charge scheme 
  Tiago L. C. Gouveia    : GS-ROHF, GS-ROCIS                             
  Yang Guo               : DLPNO-NEVPT2, F12-NEVPT2, CIM, IAO-localization        
  Andreas Hansen         : Spin unrestricted coupled pair/coupled cluster methods 
  Ingolf Harden          : AUTO-CI MPn and infrastructure                
  Benjamin Helmich-Paris : MC-RPA, TRAH-(SCF,CASSCF), AVAS, COSX integrals, SCF dyn. polar., MC-PDFT, srDFT 
  Lee Huntington         : MR-EOM, pCC                                   
  Robert Izsak           : Overlap fitted RIJCOSX, COSX-SCS-MP3, EOM     
  Riya Kayal             : Wick's Theorem for AUTO-CI, AUTO-CI UHF-CCSDT 
  Emily Kempfer          : AUTO-CI RHF CISDT and CCSDT, approximate NEVPT4
  Christian Kollmar      : KDIIS, OOCD, Brueckner-CCSD(T), CCSD density, CASPT2, CASPT2-K, improved NEVPT2 
  Axel Koslowski         : Symmetry handling                             
  Simone Kossmann        : meta-GGA functionals, TD-DFT gradient, OOMP2, (MP2 Hessian; deprecated post 5.0) 
  Lucas Lang             : DCDCAS, Hyperfine gauge corrections, ICE-SOC+SSC
  Marvin Lechner         : AUTO-CI (C++ implementation), FIC-MRCC        
  Spencer Leger          : CASSCF response                               
  Dagmar Lenk            : GEPOL surface, SMD, ORCA-2-JSON               
  Dimitrios Liakos       : Extrapolation schemes; Compound Job, Property file
  Dimitrios Manganas     : Further ROCIS development; embedding schemes. LFT, Crystal Embedding 
  Dimitrios Pantazis     : SARC Basis sets                               
  Anastasios Papadopoulos: AUTO-CI, single reference methods and gradients 
  Taras Petrenko         : pre 6.0 DFT Hessian and TD-DFT gradient,  ECA, NRVS 
  Petra Pikulova         : Analytic Raman intensities                    
  Peter Pinski           : DLPNO-MP2, DLPNO-MP2 Gradient                 
  Shashank Vittal Rao    : ES-AILFT, MagRelax                            
  Christoph Reimann      : Effective Core Potentials                     
  Marius Retegan         : Local ZFS, SOC                                
  Christoph Riplinger    : Optimizer, TS searches, QM/MM, DLPNO-CCSD(T), (RO)-DLPNO pert. Triples 
  Michael Roemelt        : Original ROCIS implementation, recursive CI coupling coefficients
  Masaaki Saitow         : Open-shell DLPNO-CCSD energy and density      
  Barbara Sandhoefer     : DKH picture change effects                    
  Yorick L. A. Schmerwitz: GMF and freeze-and-release deltaSCF, NEB S-IDPP initial path                    
  Kantharuban Sivalingam : CASSCF convergence/infrastructure, NEVPT2, NEVPT3, NEVPT4(SD), FIC-MRCI and CEPA variants
  Bernardo de Souza      : ESD, SOC TD-DFT                               
  Georgi L. Stoychev     : AutoAux, RI-MP2 NMR, DLPNO-MP2 response, X2C  
  Van Anh Tran           : RI-MP2 g-tensors                              
  Willem Van den Heuvel  : Paramagnetic NMR                              
  Zikuan Wang            : NOTCH, Electric field optimization            
  Frank Wennmohs         : Technical directorship and infrastructure     
  Hang Xu                : AUTO-CI-Response properties                   
                                                                         
[FACCTs GmbH]                                                            
  Markus Bursch, Nicolas Foglia, Miquel Garcia-Rates, Ingolf Harden, Hagen Neugebauer, Anastasios Papadopoulos, 
  Christoph Riplinger, Bernardo de Souza, Georgi L. Stoychev                                                    
                                                                 
  APM, various basis sets, CI-OPT, improved COSX, DLPNO-Multilevel,           
  DOCKER, DRACO, updates on ESD, Fragmentator, GOAT, IRC, LR-CPCM, L-BFGS, MBIS, meta-GGA TD-DFT gradient, ML-optimized integration grids, 
  MM, NACMEs, nearIR, NEB, NEB-TS, NL-DFT gradient (VV10), 2- and 3-layer-ONIOM, interface openCOSMO-RS, QMMM,   
  Crystal-QMMM, RESP, rigid body optimization, SF, symmetry and pop. for TD-DFT, various functionals, SOLVATOR                                   
                                                                         
[Other institutions]                                                     
  V. Asgeirsson          : NEB                                           
  Christoph Bannwarth    : sTDA-DFT, sTD-DFT, PBEh-3c, B97-3c, D3        
  Giovanni Bistoni       : ETS/NOCV, ADLD/ADEX, COVALED                  
  Martin Brehm           : Molecular dynamics                            
  Ronald Cardenas        : ETS/NOCV                                      
  Martina Colucci        : COVALED                                       
  Sebastian Ehlert       : rSCAN, r2SCAN, r2SCAN-3c, D4, dhf basis sets  
  Marvin Friede          : D4 for Fr, Ra, Ac-Lr                          
  Lars Goerigk           : TD-DFT with DH, B97 family of functionals     
  Stefan Grimme          : VdW corrections, initial TS optimization, DFT functionals, gCP, sTDA/sTD-DF 
  Waldemar Hujo          : DFT-NL                                        
  H. Jonsson             : NEB                                           
  Holger Kruse           : gCP                                           
  Marcel Mueller         : wB97X-3c, vDZP basis set                      
  Hagen Neugebauer       : wr2SCAN, Native XTB                           
  Gianluca Regni         : ADLD/ADEX                                     
  Tobias Risthaus        : pre 6.0 range-separated hybrid DFT and stability analysis
  Lukas Wittmann         : regularized MP2, r2SCAN double-hybrids, wr2SCAN        
                                                                         
We gratefully acknowledge several colleagues who have allowed us to      
interface, adapt or use parts of their codes:                            
  Ed Valeev, F. Pavosevic, A. Kumar             : LibInt (2-el integral package), F12 methods 
  Garnet Chan, S. Sharma, J. Yang, R. Olivares  : DMRG                   
  Ulf Ekstrom                                   : XCFun DFT Library      
  Mihaly Kallay                                 : mrcc  (arbitrary order and MRCC methods)
  Frank Weinhold                                : gennbo (NPA and NBO analysis)           
  Simon Mueller                                 : openCOSMO-RS                            
  Christopher J. Cramer and Donald G. Truhlar   : smd solvation model                     
  S Lehtola, MJT Oliveira, MAL Marques          : LibXC Library                           
  Liviu Ungur et al                             : ANISO software                          


 Your calculation uses the libint2 library for the computation of 2-el integrals
 For citations please refer to: http://libint.valeyev.net

 Your ORCA version has been built with support for libXC version: 7.0.0
 For citations please refer to: https://libxc.gitlab.io

 This ORCA versions uses:
   CBLAS   interface :  Fast vector & matrix operations
   LAPACKE interface :  Fast linear algebra routines
   SCALAPACK package :  Parallel linear algebra routines
   Shared memory     :  Shared parallel matrices
   BLAS/LAPACK       :  OpenBLAS 0.3.29  USE64BITINT DYNAMIC_ARCH NO_AFFINITY SkylakeX SINGLE_THREADED
        Core in use  :  SkylakeX
   Copyright (c) 2011-2014, The OpenBLAS Project


  ***********************************
  * Starting time: Tue Jul 14 10:02:30 2026
  * Host name:     tomasz-Precision-5820-Tower
  * Process ID:    1497952
  * Working dir.:  /data/BIOFILM_INSILICO_SUPPORT/01_qm_orca_xtb/compound_08/outputs
  ***********************************

NOTE: MaxCore=3000 MB was set to SCF,MP2,MDCI,CIPSI,MRCI,RASCI and CIS
      => If you want to overwrite this, your respective input block should be placed after the MaxCore statement


***************************************
The coordinates will be read from file: ../geometries/compound_08_wb97xd3_def2svp_cpcm_water_opt_min.xyz
***************************************


Your calculation utilizes the atom-pairwise dispersion correction
with the zero-damping scheme (D30)


XCFun DFT library Copyright 2009-2010 Ulf Ekstrom and contributors.
See http://admol.org/xcfun for more information.
This is free software; see the source code for copying conditions.
There is ABSOLUTELY NO WARRANTY; not even for MERCHANTABILITY or FITNESS FOR A PARTICULAR PURPOSE.
For details see the documentation.
Scientific users of this library should cite U. Ekstrom, L. Visscher, R. Bast, A. J. Thorvaldsen and K. Ruud;
J.Chem.Theor.Comp. 2010, DOI: 10.1021/ct100117s
XCFun Version 0.99 

Warning: RI is on but no J-basis has been assigned. Assigning Def2/J (nothing to worry about!)
================================================================================

----- Orbital basis set information -----
Your calculation utilizes the basis: def2-SVP
   F. Weigend and R. Ahlrichs, Phys. Chem. Chem. Phys. 7, 3297 (2005).

----- AuxJ basis set information -----
Your calculation utilizes the auxiliary basis: def2/J
   H-Rn: F. Weigend, Phys. Chem. Chem. Phys. 8, 1057 (2006).
   Fr-Lr: K. Eichkorn, F. Weigend, O. Treutler, R. Ahlrichs; Theor. Chem. Acc. 97, 119 (1997).

================================================================================
                                        WARNINGS
                       Please study these warnings very carefully!
================================================================================


================================================================================
                                       INPUT FILE
================================================================================
NAME = ../inputs/compound_08_wb97xd3_def2svp_cpcm_water_freq.inp
|  1> ! wB97X-D3 def2-SVP CPCM(Water) TightSCF Freq MOREAD
|  2> %pal
|  3>   nprocs 8
|  4> end
|  5> %maxcore 3000
|  6> %moinp "../inputs/compound_08_wb97xd3_def2svp_cpcm_water_restart_cycle80_carthess_opt.gbw"
|  7> %freq
|  8>   Temp 298.15
|  9> end
| 10> * xyzfile 0 1 ../geometries/compound_08_wb97xd3_def2svp_cpcm_water_opt_min.xyz
| 11> 
| 12>                          ****END OF INPUT****
================================================================================

                       ****************************
                       * Single Point Calculation *
                       ****************************

---------------------------------
CARTESIAN COORDINATES (ANGSTROEM)
---------------------------------
  S     10.550905    3.549742    0.814596
  C      9.687892    2.379997   -0.036619
  N     10.242600    1.492936   -0.857142
  N      8.331487    2.319935    0.092320
  N      7.633834    1.322912   -0.504493
  C      6.362316    1.318251   -0.407185
  C      5.555409    0.188711   -0.977428
  C      4.571150   -0.336467    0.091815
  S      3.189072   -1.129741   -0.792214
  C      2.468089   -2.110755    0.571200
  C      1.456065   -3.136955    0.036424
  O      1.952285   -3.869170   -1.068623
  C      2.831416   -4.860077   -0.827143
  C      3.263867   -5.519475   -2.099331
  O      3.207293   -5.135250    0.284514
  C      0.182119   -2.446231   -0.422102
  O     -0.803726   -3.425149   -0.722279
  C     -1.078893   -3.698578   -2.010637
  C     -2.174138   -4.714341   -2.120347
  O     -0.511390   -3.168777   -2.933089
  C     -0.388440   -1.529594    0.653267
  O     -1.393976   -0.724362    0.072415
  C     -2.718724   -1.097661    0.299215
  C     -3.575984   -0.643986   -0.879837
  O     -3.046192   -1.131985   -2.099699
  C     -3.908789   -1.655087   -3.001570
  C     -3.256659   -1.823949   -4.338050
  O     -5.052493   -1.923663   -2.737142
  C     -3.646364    0.873702   -0.954053
  O     -4.555573    1.187916   -2.001155
  C     -4.305368    2.245741   -2.793391
  C     -5.377993    2.404554   -3.825988
  O     -3.348162    2.964619   -2.648763
  C     -4.130527    1.430021    0.378155
  O     -3.977116    2.843922    0.405031
  C     -5.018972    3.625703    0.068363
  C     -4.636776    5.072856    0.111947
  O     -6.097253    3.185900   -0.243848
  C     -3.260467    0.883948    1.512724
  C     -3.753780    1.289757    2.885106
  O     -5.089280    0.837872    3.080431
  C     -5.302273   -0.251642    3.835917
  C     -6.745835   -0.655951    3.796795
  O     -4.433996   -0.812505    4.456762
  O     -3.223008   -0.534158    1.476558
  C      0.704888   -0.610221    1.203947
  C      0.263649    0.135243    2.449012
  O      1.090177    1.271441    2.683038
  C      0.764036    2.414249    2.058248
  C      1.776203    3.489390    2.307181
  O     -0.218152    2.521292    1.362586
  O      1.854224   -1.351595    1.573410
  C      4.128187    0.834168    0.997911
  O      4.191267    2.040447    0.239405
  C      5.543168    2.367886    0.349394
  O      5.830885    2.281432    1.721304
  C      5.100644    1.138326    2.168611
  H      9.665339    0.799183   -1.321859
  H     11.246049    1.491873   -0.982643
  H      7.911343    2.926758    0.794278
  H      6.214459   -0.607578   -1.344731
  H      4.980075    0.579475   -1.833962
  H      5.055502   -1.110324    0.706971
  H      3.293753   -2.640966    1.064143
  H      1.226587   -3.824970    0.865345
  H      3.852704   -4.798969   -2.686046
  H      3.874520   -6.400120   -1.873733
  H      2.385992   -5.798225   -2.697584
  H      0.383500   -1.851896   -1.326141
  H     -3.099312   -4.298058   -1.694581
  H     -2.332978   -4.981855   -3.170601
  H     -1.913915   -5.606161   -1.533756
  H     -0.802437   -2.141918    1.473972
  H     -2.802740   -2.187288    0.426464
  H     -4.587158   -1.048911   -0.732642
  H     -3.137557   -0.826154   -4.787141
  H     -2.257495   -2.264892   -4.228644
  H     -3.889959   -2.442099   -4.983587
  H     -2.655986    1.290474   -1.189934
  H     -5.576018    1.443395   -4.318752
  H     -6.301156    2.720060   -3.317677
  H     -5.082351    3.163531   -4.558054
  H     -5.186967    1.164597    0.530563
  H     -4.180292    5.314910    1.081109
  H     -3.884425    5.256585   -0.668958
  H     -5.518265    5.697699   -0.066252
  H     -2.247856    1.304362    1.381965
  H     -3.094881    0.867080    3.654697
  H     -3.763534    2.383937    2.968014
  H     -6.997543   -0.983921    2.777595
  H     -6.924814   -1.472189    4.505010
  H     -7.384264    0.205428    4.036026
  H      0.958422    0.113111    0.406321
  H      0.384150   -0.516627    3.323315
  H     -0.784297    0.440147    2.366626
  H      1.366396    4.461121    2.010632
  H      2.666416    3.270082    1.696733
  H      2.080522    3.497883    3.361681
  H      3.105974    0.698356    1.361119
  H      5.718546    3.392854   -0.010666
  H      5.778387    0.297262    2.384385
  H      4.554430    1.407310    3.082806

----------------------------
CARTESIAN COORDINATES (A.U.)
----------------------------
  NO LB      ZA    FRAG     MASS         X           Y           Z
   0 S    16.0000    0    32.060   19.938321    6.708041    1.539364
   1 C     6.0000    0    12.011   18.307464    4.497543   -0.069200
   2 N     7.0000    0    14.007   19.355709    2.821239   -1.619763
   3 N     7.0000    0    14.007   15.744228    4.384041    0.174459
   4 N     7.0000    0    14.007   14.425856    2.499941   -0.953354
   5 C     6.0000    0    12.011   12.023036    2.491134   -0.769469
   6 C     6.0000    0    12.011   10.498201    0.356613   -1.847071
   7 C     6.0000    0    12.011    8.638221   -0.635830    0.173506
   8 S    16.0000    0    32.060    6.026473   -2.134901   -1.497067
   9 C     6.0000    0    12.011    4.664013   -3.988749    1.079412
  10 C     6.0000    0    12.011    2.751564   -5.927987    0.068832
  11 O     8.0000    0    15.999    3.689283   -7.311672   -2.019405
  12 C     6.0000    0    12.011    5.350602   -9.184215   -1.563074
  13 C     6.0000    0    12.011    6.167815  -10.430296   -3.967160
  14 O     8.0000    0    15.999    6.060906   -9.704216    0.537653
  15 C     6.0000    0    12.011    0.344155   -4.622707   -0.797657
  16 O     8.0000    0    15.999   -1.518822   -6.472594   -1.364910
  17 C     6.0000    0    12.011   -2.038812   -6.989299   -3.799553
  18 C     6.0000    0    12.011   -4.108525   -8.908813   -4.006876
  19 O     8.0000    0    15.999   -0.966387   -5.988120   -5.542736
  20 C     6.0000    0    12.011   -0.734045   -2.890514    1.234495
  21 O     8.0000    0    15.999   -2.634233   -1.368845    0.136845
  22 C     6.0000    0    12.011   -5.137644   -2.074278    0.565434
  23 C     6.0000    0    12.011   -6.757630   -1.216957   -1.662651
  24 O     8.0000    0    15.999   -5.756468   -2.139141   -3.967855
  25 C     6.0000    0    12.011   -7.386541   -3.127661   -5.672146
  26 C     6.0000    0    12.011   -6.154194   -3.446764   -8.197726
  27 O     8.0000    0    15.999   -9.547828   -3.635196   -5.172449
  28 C     6.0000    0    12.011   -6.890630    1.651057   -1.802899
  29 O     8.0000    0    15.999   -8.608786    2.244835   -3.781634
  30 C     6.0000    0    12.011   -8.135966    4.243836   -5.278744
  31 C     6.0000    0    12.011  -10.162934    4.543949   -7.230069
  32 O     8.0000    0    15.999   -6.327109    5.602319   -5.005437
  33 C     6.0000    0    12.011   -7.805565    2.702348    0.714610
  34 O     8.0000    0    15.999   -7.515659    5.374234    0.765398
  35 C     6.0000    0    12.011   -9.484482    6.851585    0.129187
  36 C     6.0000    0    12.011   -8.762236    9.586309    0.211549
  37 O     8.0000    0    15.999  -11.522139    6.020479   -0.460806
  38 C     6.0000    0    12.011   -6.161389    1.670419    2.858635
  39 C     6.0000    0    12.011   -7.093617    2.437288    5.452061
  40 O     8.0000    0    15.999   -9.617345    1.583349    5.821171
  41 C     6.0000    0    12.011  -10.019843   -0.475534    7.248833
  42 C     6.0000    0    12.011  -12.747780   -1.239568    7.174903
  43 O     8.0000    0    15.999   -8.379037   -1.535412    8.422060
  44 O     8.0000    0    15.999   -6.090602   -1.009413    2.790290
  45 C     6.0000    0    12.011    1.332046   -1.153150    2.275130
  46 C     6.0000    0    12.011    0.498224    0.255573    4.627962
  47 O     8.0000    0    15.999    2.060137    2.402675    5.070207
  48 C     6.0000    0    12.011    1.443820    4.562269    3.889524
  49 C     6.0000    0    12.011    3.356538    6.593992    4.359941
  50 O     8.0000    0    15.999   -0.412247    4.764551    2.574914
  51 O     8.0000    0    15.999    3.503975   -2.554145    2.973313
  52 C     6.0000    0    12.011    7.801144    1.576349    1.885779
  53 O     8.0000    0    15.999    7.920347    3.855887    0.452410
  54 C     6.0000    0    12.011   10.475069    4.474656    0.660258
  55 O     8.0000    0    15.999   11.018776    4.311282    3.252793
  56 C     6.0000    0    12.011    9.638821    2.151125    4.098081
  57 H     1.0000    0     1.008   18.264843    1.510238   -2.497951
  58 H     1.0000    0     1.008   21.251953    2.819232   -1.856927
  59 H     1.0000    0     1.008   14.950271    5.530771    1.500967
  60 H     1.0000    0     1.008   11.743625   -1.148157   -2.541174
  61 H     1.0000    0     1.008    9.410978    1.095049   -3.465686
  62 H     1.0000    0     1.008    9.553513   -2.098207    1.335981
  63 H     1.0000    0     1.008    6.224291   -4.990702    2.010939
  64 H     1.0000    0     1.008    2.317914   -7.228145    1.635265
  65 H     1.0000    0     1.008    7.280555   -9.068737   -5.075891
  66 H     1.0000    0     1.008    7.321782  -12.094475   -3.540842
  67 H     1.0000    0     1.008    4.508870  -10.957057   -5.097694
  68 H     1.0000    0     1.008    0.724710   -3.499576   -2.506044
  69 H     1.0000    0     1.008   -5.856850   -8.122153   -3.202293
  70 H     1.0000    0     1.008   -4.408690   -9.414342   -5.991567
  71 H     1.0000    0     1.008   -3.616775  -10.594109   -2.898379
  72 H     1.0000    0     1.008   -1.516387   -4.047638    2.785403
  73 H     1.0000    0     1.008   -5.296410   -4.133376    0.805900
  74 H     1.0000    0     1.008   -8.668472   -1.982155   -1.384493
  75 H     1.0000    0     1.008   -5.929124   -1.561206   -9.046385
  76 H     1.0000    0     1.008   -4.266047   -4.280025   -7.990979
  77 H     1.0000    0     1.008   -7.350957   -4.614898   -9.417615
  78 H     1.0000    0     1.008   -5.019087    2.438643   -2.248648
  79 H     1.0000    0     1.008  -10.537146    2.727621   -8.161258
  80 H     1.0000    0     1.008  -11.907458    5.140168   -6.269501
  81 H     1.0000    0     1.008   -9.604251    5.978208   -8.613473
  82 H     1.0000    0     1.008   -9.801947    2.200769    1.002618
  83 H     1.0000    0     1.008   -7.899607   10.043725    2.043000
  84 H     1.0000    0     1.008   -7.340500    9.933506   -1.264147
  85 H     1.0000    0     1.008  -10.428009   10.767091   -0.125198
  86 H     1.0000    0     1.008   -4.247832    2.464888    2.611535
  87 H     1.0000    0     1.008   -5.848478    1.638543    6.906377
  88 H     1.0000    0     1.008   -7.112049    4.504989    5.608735
  89 H     1.0000    0     1.008  -13.223441   -1.859342    5.248894
  90 H     1.0000    0     1.008  -13.086001   -2.782034    8.513235
  91 H     1.0000    0     1.008  -13.954237    0.388203    7.626983
  92 H     1.0000    0     1.008    1.811156    0.213749    0.767835
  93 H     1.0000    0     1.008    0.725938   -0.976283    6.280154
  94 H     1.0000    0     1.008   -1.482107    0.831757    4.472274
  95 H     1.0000    0     1.008    2.582114    8.430296    3.799543
  96 H     1.0000    0     1.008    5.038795    6.179559    3.206361
  97 H     1.0000    0     1.008    3.931617    6.610040    6.352656
  98 H     1.0000    0     1.008    5.869441    1.319701    2.572142
  99 H     1.0000    0     1.008   10.806486    6.411564   -0.020156
 100 H     1.0000    0     1.008   10.919570    0.561744    4.505835
 101 H     1.0000    0     1.008    8.606626    2.659430    5.825660

--------------------------------
INTERNAL COORDINATES (ANGSTROEM)
--------------------------------
 S      0   0   0     0.000000000000     0.00000000     0.00000000
 C      1   0   0     1.684535963994     0.00000000     0.00000000
 N      2   1   0     1.329600367153   124.15132214     0.00000000
 N      2   1   3     1.363843709314   119.49379978   180.63597779
 N      4   2   1     1.355344642970   120.17884052   185.02477563
 C      5   4   2     1.275244132256   118.83740397   182.48278971
 C      6   5   4     1.500712231647   120.65504221   183.87963436
 C      7   6   5     1.545269711983   109.59408256   129.74247458
 S      8   7   6     1.822341799325   107.17815595   155.75986618
 C      9   8   7     1.827868134407    99.84192884   162.81034452
 C     10   9   8     1.537292007212   111.00537205   192.69080035
 O     11  10   9     1.415451442967   112.71280405    47.53670624
 C     12  11  10     1.346507107168   118.00610533    77.06854973
 C     13  12  11     1.496756423343   111.12560650   180.57969812
 O     13  12  11     1.205315450106   122.48074276   359.70635102
 C     11  10   9     1.519962015977   110.69248069   287.66254958
 O     16  11  10     1.421364351574   109.39387254   188.60378370
 C     17  16  11     1.345490596023   118.94884871   255.46205629
 C     18  17  16     1.497788827582   110.94688135   182.08595920
 O     18  17  16     1.205681466873   123.16422895     1.35115616
 C     16  11  10     1.523869583239   111.97990623   307.89188969
 O     21  16  11     1.413113948766   108.60972591   168.08971966
 C     22  21  16     1.394900585747   117.15889886   101.19289486
 C     23  22  21     1.526721587813   109.15798899   208.79804258
 O     24  23  22     1.416645543655   110.64944194    54.06754757
 C     25  24  23     1.353175010083   117.94828393   135.78867004
 C     26  25  24     1.496651329985   111.16256539   166.65614577
 O     26  25  24     1.204206763745   123.04518866   347.53070110
 C     24  23  22     1.521130563847   111.10898913   293.34429428
 O     29  24  23     1.421904613601   106.61838969   185.07984445
 C     30  29  24     1.345078415053   119.24732511   217.30171502
 C     31  30  29     1.497331770541   110.87562467   180.06795421
 O     31  30  29     1.205796863057   123.08517867   358.82222429
 C     29  24  23     1.522722568573   109.66643471   305.46982135
 O     34  29  24     1.422453974562   110.20540202   169.74049139
 C     35  34  29     1.345358611662   119.29803660    94.94718390
 C     36  35  34     1.497406763901   110.89462789   182.11857764
 O     36  35  34     1.205650376065   123.05370805     0.95738203
 C     34  29  24     1.530505721078   109.72163055    53.11690979
 C     39  34  29     1.513760885183   113.02671597   185.22609337
 O     40  39  34     1.423344513946   110.18640867    58.34112450
 C     41  40  39     1.342820593919   118.92247765   102.46797897
 C     42  41  40     1.499622711740   110.90125786   186.33614580
 O     42  41  40     1.205786345272   123.56366535     6.47004086
 O     23  22  21     1.399276068087   111.79558215    87.95972133
 C     21  16  11     1.530967779916   110.34475946    49.53313186
 C     46  21  16     1.516771698332   112.49820549   190.84382945
 O     47  46  21     1.424381286170   110.98393412   199.02855545
 C     48  47  46     1.342662094625   117.48637725    85.96586095
 C     49  48  47     1.497457336057   111.68878961   184.58461549
 O     49  48  47     1.208344764810   122.73435736     3.06310978
 O     10   9   8     1.399134493049   114.59153974    68.93190070
 C      8   7   6     1.545189594963   109.32170758    32.49244255
 O     53   8   7     1.426331281459   108.43331417    28.30891446
 C     54  53   8     1.395331071367   101.50144559   277.21705681
 O     55  54  53     1.404419350080   105.13208686   310.51511716
 C     56  55  54     1.428294532205   104.50426651    39.23634145
 H      3   2   1     1.015128166575   120.08056936   178.47417951
 H      3   2   1     1.011267091920   119.42348619     1.02380318
 H      4   2   1     1.018577595741   116.68903147   352.91802342
 H      7   6   5     1.096966751479   110.52149325     6.37942564
 H      7   6   5     1.103338491169   107.98625440   248.34369418
 H      8   7   6     1.100848595838   110.20165117   272.30836925
 H     10   9   8     1.098106041007   107.30152066   311.93524617
 H     11  10   9     1.101423270566   106.99801335   168.23304346
 H     14  13  12     1.100041834806   108.62900667    67.14601291
 H     14  13  12     1.095138248340   109.89389700   187.23962772
 H     14  13  12     1.098305238735   110.11181615   309.46220875
 H     16  11  10     1.100488803258   109.86888847    68.99929922
 H     19  18  17     1.100233953235   109.26595401    63.49628216
 H     19  18  17     1.095366328856   109.99245924   184.30214132
 H     19  18  17     1.098702976517   109.76595206   305.92027033
 H     21  16  11     1.104486779612   109.34348244   289.07242448
 H     23  22  21     1.100244958430   110.87679835   330.03340257
 H     24  23  22     1.099137552727   107.67824666   173.60590228
 H     27  26  25     1.100664239463   108.01224991   286.98829697
 H     27  26  25     1.097601918833   110.66875355    44.82567753
 H     27  26  25     1.095398012767   109.75540898   167.67408650
 H     29  24  23     1.100085083790   110.29199741    66.26196242
 H     32  31  30     1.098115733545   110.23097419   311.49114399
 H     32  31  30     1.100069247921   108.23537479    69.26392628
 H     32  31  30     1.095158226591   109.94428662   189.04063982
 H     34  29  24     1.099882859207   109.78339815   290.96232730
 H     37  36  35     1.098290735582   110.16744140   307.80732526
 H     37  36  35     1.099818182532   108.38383727    65.51255702
 H     37  36  35     1.095082879069   109.95302981   185.61683822
 H     39  34  29     1.104186222624   107.31944359    66.62448429
 H     40  39  34     1.097759274560   109.67934535   179.77850110
 H     40  39  34     1.097360013031   109.79746240   300.33098854
 H     43  42  41     1.099859384850   108.95767850    66.02500902
 H     43  42  41     1.095374771509   109.95745707   186.46819512
 H     43  42  41     1.098542997999   110.02018380   308.26879751
 H     46  21  16     1.106208016514   107.27680922    70.11187918
 H     47  46  21     1.097205808195   109.27818464    82.21944724
 H     47  46  21     1.094506244540   110.71122429   321.77326974
 H     50  49  48     1.095511057349   109.81631070   194.45020091
 H     50  49  48     1.101462898299   108.13170026    75.37938205
 H     50  49  48     1.097565886542   110.65142469   317.21983571
 H     53   8   7     1.093290610897   111.63750573   148.21507548
 H     55  54  53     1.100436277233   110.31573819   191.80009587
 H     57  56  55     1.101491472037   110.96970341   107.69575824
 H     57  56  55     1.098387495628   108.59720953   227.81173359

---------------------------
INTERNAL COORDINATES (A.U.)
---------------------------
 S      0   0   0     0.000000000000     0.00000000     0.00000000
 C      1   0   0     3.183311634690     0.00000000     0.00000000
 N      2   1   0     2.512580561481   124.15132214     0.00000000
 N      2   1   3     2.577291100075   119.49379978   180.63597779
 N      4   2   1     2.561230192291   120.17884052   185.02477563
 C      5   4   2     2.409862163854   118.83740397   182.48278971
 C      6   5   4     2.835935123639   120.65504221   183.87963436
 C      7   6   5     2.920136558691   109.59408256   129.74247458
 S      8   7   6     3.443726923122   107.17815595   155.75986618
 C      9   8   7     3.454170182951    99.84192884   162.81034452
 C     10   9   8     2.905060881497   111.00537205   192.69080035
 O     11  10   9     2.674815583071   112.71280405    47.53670624
 C     12  11  10     2.544529669926   118.00610533    77.06854973
 C     13  12  11     2.828459729305   111.12560650   180.57969812
 O     13  12  11     2.277716105685   122.48074276   359.70635102
 C     11  10   9     2.872311944160   110.69248069   287.66254958
 O     16  11  10     2.685989360993   109.39387254   188.60378370
 C     17  16  11     2.542608742249   118.94884871   255.46205629
 C     18  17  16     2.830410690576   110.94688135   182.08595920
 O     18  17  16     2.278407777134   123.16422895     1.35115616
 C     16  11  10     2.879696176134   111.97990623   307.89188969
 O     21  16  11     2.670398359192   108.60972591   168.08971966
 C     22  21  16     2.635980091109   117.15889886   101.19289486
 C     23  22  21     2.885085683712   109.15798899   208.79804258
 O     24  23  22     2.677072106347   110.64944194    54.06754757
 C     25  24  23     2.557130180322   117.94828393   135.78867004
 C     26  25  24     2.828261131642   111.16256539   166.65614577
 O     26  25  24     2.275620992094   123.04518866   347.53070110
 C     24  23  22     2.874520179607   111.10898913   293.34429428
 O     29  24  23     2.687010308265   106.61838969   185.07984445
 C     30  29  24     2.541829833099   119.24732511   217.30171502
 C     31  30  29     2.829546977941   110.87562467   180.06795421
 O     31  30  29     2.278625844320   123.08517867   358.82222429
 C     29  24  23     2.877528632545   109.66643471   305.46982135
 O     34  29  24     2.688048450031   110.20540202   169.74049139
 C     35  34  29     2.542359327953   119.29803660    94.94718390
 C     36  35  34     2.829688694854   110.89462789   182.11857764
 O     36  35  34     2.278349024022   123.05370805     0.95738203
 C     34  29  24     2.892236659238   109.72163055    53.11690979
 C     39  34  29     2.860593505238   113.02671597   185.22609337
 O     40  39  34     2.689731325577   110.18640867    58.34112450
 C     41  40  39     2.537563169496   118.92247765   102.46797897
 C     42  41  40     2.833876229397   110.90125786   186.33614580
 O     42  41  40     2.278605968585   123.56366535     6.47004086
 O     23  22  21     2.644248554435   111.79558215    87.95972133
 C     21  16  11     2.893109823898   110.34475946    49.53313186
 C     46  21  16     2.866283117530   112.49820549   190.84382945
 O     47  46  21     2.691690541144   110.98393412   199.02855545
 C     48  47  46     2.537263649239   117.48637725    85.96586095
 C     49  48  47     2.829784262379   111.68878961   184.58461549
 O     49  48  47     2.283440680848   122.73435736     3.06310978
 O     10   9   8     2.643981016386   114.59153974    68.93190070
 C      8   7   6     2.919985159464   109.32170758    32.49244255
 O     53   8   7     2.695375498202   108.43331417    28.30891446
 C     54  53   8     2.636793591034   101.50144559   277.21705681
 O     55  54  53     2.653967948830   105.13208686   310.51511716
 C     56  55  54     2.699085504444   104.50426651    39.23634145
 H      3   2   1     1.918314225657   120.08056936   178.47417951
 H      3   2   1     1.911017851975   119.42348619     1.02380318
 H      4   2   1     1.924832702098   116.68903147   352.91802342
 H      7   6   5     2.072966738313   110.52149325     6.37942564
 H      7   6   5     2.085007581323   107.98625440   248.34369418
 H      8   7   6     2.080302361045   110.20165117   272.30836925
 H     10   9   8     2.075119683507   107.30152066   311.93524617
 H     11  10   9     2.081388338898   106.99801335   168.23304346
 H     14  13  12     2.078777803640   108.62900667    67.14601291
 H     14  13  12     2.069511368145   109.89389700   187.23962772
 H     14  13  12     2.075496112660   110.11181615   309.46220875
 H     16  11  10     2.079622451605   109.86888847    68.99929922
 H     19  18  17     2.079140854855   109.26595401    63.49628216
 H     19  18  17     2.069942377857   109.99245924   184.30214132
 H     19  18  17     2.076247728141   109.76595206   305.92027033
 H     21  16  11     2.087177532004   109.34348244   289.07242448
 H     23  22  21     2.079161651661   110.87679835   330.03340257
 H     24  23  22     2.077068958162   107.67824666   173.60590228
 H     27  26  25     2.079953977985   108.01224991   286.98829697
 H     27  26  25     2.074167030661   110.66875355    44.82567753
 H     27  26  25     2.070002251771   109.75540898   167.67408650
 H     29  24  23     2.078859532374   110.29199741    66.26196242
 H     32  31  30     2.075137999750   110.23097419   311.49114399
 H     32  31  30     2.078829606920   108.23537479    69.26392628
 H     32  31  30     2.069549121568   109.94428662   189.04063982
 H     34  29  24     2.078477383295   109.78339815   290.96232730
 H     37  36  35     2.075468705673   110.16744140   307.80732526
 H     37  36  35     2.078355162093   108.38383727    65.51255702
 H     37  36  35     2.069406735386   109.95302981   185.61683822
 H     39  34  29     2.086609561608   107.31944359    66.62448429
 H     40  39  34     2.074464389890   109.67934535   179.77850110
 H     40  39  34     2.073709894944   109.79746240   300.33098854
 H     43  42  41     2.078433023189   108.95767850    66.02500902
 H     43  42  41     2.069958332159   109.95745707   186.46819512
 H     43  42  41     2.075945412554   110.02018380   308.26879751
 H     46  21  16     2.090430198359   107.27680922    70.11187918
 H     47  46  21     2.073418490037   109.27818464    82.21944724
 H     47  46  21     2.068317054047   110.71122429   321.77326974
 H     50  49  48     2.070215875072   109.81631070   194.45020091
 H     50  49  48     2.081463224460   108.13170026    75.37938205
 H     50  49  48     2.074098939499   110.65142469   317.21983571
 H     53   8   7     2.066019839382   111.63750573   148.21507548
 H     55  54  53     2.079523191801   110.31573819   191.80009587
 H     57  56  55     2.081517220999   110.96970341   107.69575824
 H     57  56  55     2.075651555661   108.59720953   227.81173359

---------------------
BASIS SET INFORMATION
---------------------
There are 5 groups of distinct atoms

 Group   1 Type S   : 10s7p1d contracted to 4s3p1d pattern {5311/511/1}
 Group   2 Type C   : 7s4p1d contracted to 3s2p1d pattern {511/31/1}
 Group   3 Type N   : 7s4p1d contracted to 3s2p1d pattern {511/31/1}
 Group   4 Type O   : 7s4p1d contracted to 3s2p1d pattern {511/31/1}
 Group   5 Type H   : 4s1p contracted to 2s1p pattern {31/1}

Atom   0S    basis set group =>   1
Atom   1C    basis set group =>   2
Atom   2N    basis set group =>   3
Atom   3N    basis set group =>   3
Atom   4N    basis set group =>   3
Atom   5C    basis set group =>   2
Atom   6C    basis set group =>   2
Atom   7C    basis set group =>   2
Atom   8S    basis set group =>   1
Atom   9C    basis set group =>   2
Atom  10C    basis set group =>   2
Atom  11O    basis set group =>   4
Atom  12C    basis set group =>   2
Atom  13C    basis set group =>   2
Atom  14O    basis set group =>   4
Atom  15C    basis set group =>   2
Atom  16O    basis set group =>   4
Atom  17C    basis set group =>   2
Atom  18C    basis set group =>   2
Atom  19O    basis set group =>   4
Atom  20C    basis set group =>   2
Atom  21O    basis set group =>   4
Atom  22C    basis set group =>   2
Atom  23C    basis set group =>   2
Atom  24O    basis set group =>   4
Atom  25C    basis set group =>   2
Atom  26C    basis set group =>   2
Atom  27O    basis set group =>   4
Atom  28C    basis set group =>   2
Atom  29O    basis set group =>   4
Atom  30C    basis set group =>   2
Atom  31C    basis set group =>   2
Atom  32O    basis set group =>   4
Atom  33C    basis set group =>   2
Atom  34O    basis set group =>   4
Atom  35C    basis set group =>   2
Atom  36C    basis set group =>   2
Atom  37O    basis set group =>   4
Atom  38C    basis set group =>   2
Atom  39C    basis set group =>   2
Atom  40O    basis set group =>   4
Atom  41C    basis set group =>   2
Atom  42C    basis set group =>   2
Atom  43O    basis set group =>   4
Atom  44O    basis set group =>   4
Atom  45C    basis set group =>   2
Atom  46C    basis set group =>   2
Atom  47O    basis set group =>   4
Atom  48C    basis set group =>   2
Atom  49C    basis set group =>   2
Atom  50O    basis set group =>   4
Atom  51O    basis set group =>   4
Atom  52C    basis set group =>   2
Atom  53O    basis set group =>   4
Atom  54C    basis set group =>   2
Atom  55O    basis set group =>   4
Atom  56C    basis set group =>   2
Atom  57H    basis set group =>   5
Atom  58H    basis set group =>   5
Atom  59H    basis set group =>   5
Atom  60H    basis set group =>   5
Atom  61H    basis set group =>   5
Atom  62H    basis set group =>   5
Atom  63H    basis set group =>   5
Atom  64H    basis set group =>   5
Atom  65H    basis set group =>   5
Atom  66H    basis set group =>   5
Atom  67H    basis set group =>   5
Atom  68H    basis set group =>   5
Atom  69H    basis set group =>   5
Atom  70H    basis set group =>   5
Atom  71H    basis set group =>   5
Atom  72H    basis set group =>   5
Atom  73H    basis set group =>   5
Atom  74H    basis set group =>   5
Atom  75H    basis set group =>   5
Atom  76H    basis set group =>   5
Atom  77H    basis set group =>   5
Atom  78H    basis set group =>   5
Atom  79H    basis set group =>   5
Atom  80H    basis set group =>   5
Atom  81H    basis set group =>   5
Atom  82H    basis set group =>   5
Atom  83H    basis set group =>   5
Atom  84H    basis set group =>   5
Atom  85H    basis set group =>   5
Atom  86H    basis set group =>   5
Atom  87H    basis set group =>   5
Atom  88H    basis set group =>   5
Atom  89H    basis set group =>   5
Atom  90H    basis set group =>   5
Atom  91H    basis set group =>   5
Atom  92H    basis set group =>   5
Atom  93H    basis set group =>   5
Atom  94H    basis set group =>   5
Atom  95H    basis set group =>   5
Atom  96H    basis set group =>   5
Atom  97H    basis set group =>   5
Atom  98H    basis set group =>   5
Atom  99H    basis set group =>   5
Atom 100H    basis set group =>   5
Atom 101H    basis set group =>   5
---------------------------------
AUXILIARY/J BASIS SET INFORMATION
---------------------------------
There are 5 groups of distinct atoms

 Group   1 Type S   : 14s5p5d2f1g contracted to 8s4p3d1f1g pattern {71111111/2111/311/2/1}
 Group   2 Type C   : 12s5p4d2f1g contracted to 6s4p3d1f1g pattern {711111/2111/211/2/1}
 Group   3 Type N   : 12s5p4d2f1g contracted to 6s4p3d1f1g pattern {711111/2111/211/2/1}
 Group   4 Type O   : 12s5p4d2f1g contracted to 6s4p3d1f1g pattern {711111/2111/211/2/1}
 Group   5 Type H   : 5s2p1d contracted to 3s1p1d pattern {311/2/1}

Atom   0S    basis set group =>   1
Atom   1C    basis set group =>   2
Atom   2N    basis set group =>   3
Atom   3N    basis set group =>   3
Atom   4N    basis set group =>   3
Atom   5C    basis set group =>   2
Atom   6C    basis set group =>   2
Atom   7C    basis set group =>   2
Atom   8S    basis set group =>   1
Atom   9C    basis set group =>   2
Atom  10C    basis set group =>   2
Atom  11O    basis set group =>   4
Atom  12C    basis set group =>   2
Atom  13C    basis set group =>   2
Atom  14O    basis set group =>   4
Atom  15C    basis set group =>   2
Atom  16O    basis set group =>   4
Atom  17C    basis set group =>   2
Atom  18C    basis set group =>   2
Atom  19O    basis set group =>   4
Atom  20C    basis set group =>   2
Atom  21O    basis set group =>   4
Atom  22C    basis set group =>   2
Atom  23C    basis set group =>   2
Atom  24O    basis set group =>   4
Atom  25C    basis set group =>   2
Atom  26C    basis set group =>   2
Atom  27O    basis set group =>   4
Atom  28C    basis set group =>   2
Atom  29O    basis set group =>   4
Atom  30C    basis set group =>   2
Atom  31C    basis set group =>   2
Atom  32O    basis set group =>   4
Atom  33C    basis set group =>   2
Atom  34O    basis set group =>   4
Atom  35C    basis set group =>   2
Atom  36C    basis set group =>   2
Atom  37O    basis set group =>   4
Atom  38C    basis set group =>   2
Atom  39C    basis set group =>   2
Atom  40O    basis set group =>   4
Atom  41C    basis set group =>   2
Atom  42C    basis set group =>   2
Atom  43O    basis set group =>   4
Atom  44O    basis set group =>   4
Atom  45C    basis set group =>   2
Atom  46C    basis set group =>   2
Atom  47O    basis set group =>   4
Atom  48C    basis set group =>   2
Atom  49C    basis set group =>   2
Atom  50O    basis set group =>   4
Atom  51O    basis set group =>   4
Atom  52C    basis set group =>   2
Atom  53O    basis set group =>   4
Atom  54C    basis set group =>   2
Atom  55O    basis set group =>   4
Atom  56C    basis set group =>   2
Atom  57H    basis set group =>   5
Atom  58H    basis set group =>   5
Atom  59H    basis set group =>   5
Atom  60H    basis set group =>   5
Atom  61H    basis set group =>   5
Atom  62H    basis set group =>   5
Atom  63H    basis set group =>   5
Atom  64H    basis set group =>   5
Atom  65H    basis set group =>   5
Atom  66H    basis set group =>   5
Atom  67H    basis set group =>   5
Atom  68H    basis set group =>   5
Atom  69H    basis set group =>   5
Atom  70H    basis set group =>   5
Atom  71H    basis set group =>   5
Atom  72H    basis set group =>   5
Atom  73H    basis set group =>   5
Atom  74H    basis set group =>   5
Atom  75H    basis set group =>   5
Atom  76H    basis set group =>   5
Atom  77H    basis set group =>   5
Atom  78H    basis set group =>   5
Atom  79H    basis set group =>   5
Atom  80H    basis set group =>   5
Atom  81H    basis set group =>   5
Atom  82H    basis set group =>   5
Atom  83H    basis set group =>   5
Atom  84H    basis set group =>   5
Atom  85H    basis set group =>   5
Atom  86H    basis set group =>   5
Atom  87H    basis set group =>   5
Atom  88H    basis set group =>   5
Atom  89H    basis set group =>   5
Atom  90H    basis set group =>   5
Atom  91H    basis set group =>   5
Atom  92H    basis set group =>   5
Atom  93H    basis set group =>   5
Atom  94H    basis set group =>   5
Atom  95H    basis set group =>   5
Atom  96H    basis set group =>   5
Atom  97H    basis set group =>   5
Atom  98H    basis set group =>   5
Atom  99H    basis set group =>   5
Atom 100H    basis set group =>   5
Atom 101H    basis set group =>   5


           ************************************************************
           *        Program running with 8 parallel MPI-processes     *
           *              working on a common directory               *
           ************************************************************
------------------------------------------------------------------------------
                             ORCA STARTUP CALCULATIONS
                           -- RI-GTO INTEGRALS CHOSEN --
------------------------------------------------------------------------------
------------------------------------------------------------------------------
                   ___                                                        
                  /   \      - P O W E R E D   B Y -                         
                 /     \                                                     
                 |  |  |   _    _      __       _____    __    __             
                 |  |  |  | |  | |    /  \     |  _  \  |  |  /  |          
                  \  \/   | |  | |   /    \    | | | |  |  | /  /          
                 / \  \   | |__| |  /  /\  \   | |_| |  |  |/  /          
                |  |  |   |  __  | /  /__\  \  |    /   |      \           
                |  |  |   | |  | | |   __   |  |    \   |  |\   \          
                \     /   | |  | | |  |  |  |  | |\  \  |  | \   \       
                 \___/    |_|  |_| |__|  |__|  |_| \__\ |__|  \__/        
                                                                              
                      - O R C A' S   B I G   F R I E N D -                    
                                      &                                       
                       - I N T E G R A L  F E E D E R -                       
                                                                              
 v1 FN, 2020, v2 2021, v3 2022-2024                                           
------------------------------------------------------------------------------


----------------------
SHARK INTEGRAL PACKAGE
----------------------

Number of atoms                             ...    102
Number of basis functions                   ...   1031
Number of shells                            ...    481
Maximum angular momentum                    ...      2
Integral batch strategy                     ... SHARK/LIBINT Hybrid
RI-J (if used) integral strategy            ... SPLIT-RIJ (Revised 2003 algorithm where possible)
Printlevel                                  ...      1
Contraction scheme used                     ... SEGMENTED contraction
Prescreening option                         ... SCHWARTZ
   Thresh                                   ... 2.500e-11
   Tcut                                     ... 2.500e-12
   Tpresel                                  ... 2.500e-12 
Coulomb Range Separation                    ... NOT USED
Exchange Range Separation                   ... Long Range
   Mu parameter                             ... 2.500e-01
   Scaling (regular/separated)              ... 1.957e-01 8.043e-01
Robust (split-)RI terms used:
  metric    (central integrals)             ... YES
  density   (r.h.s.  integrals)             ... YES
  potential (l.h.s.  integrals)             ... YES
Multipole approximations                    ... NOT USED
Finite Nucleus Model                        ... NOT USED
CABS basis                                  ... NOT available
Auxiliary Coulomb fitting basis             ... AVAILABLE
   # of basis functions in Aux-J            ...   3292
   # of shells in Aux-J                     ...   1084
   Maximum angular momentum in Aux-J        ...      4
Auxiliary J/K fitting basis                 ... NOT available
Auxiliary Correlation fitting basis         ... NOT available
Auxiliary 'external' fitting basis          ... NOT available

Checking pre-screening integrals            ... done (  0.0 sec) Dimension = 481
   => SHARK Basis and OBASIS are compatible. Storing Pre-screening
Shell pair information
Shell pair cut-off parameter TPreSel        ...   2.5e-12
Total number of shell pairs                 ...    115921
Shell pairs after pre-screening             ...     51810
Total number of primitive shell pairs       ...    425477
Primitive shell pairs kept                  ...    108860
          la=0 lb=0:  16574 shell pairs
          la=1 lb=0:  19649 shell pairs
          la=1 lb=1:   5944 shell pairs
          la=2 lb=0:   5785 shell pairs
          la=2 lb=1:   3397 shell pairs
          la=2 lb=2:    461 shell pairs

Checking whether 4 symmetric matrices of dimension 1031 fit in memory
:Max Core in MB      =   3000.00
 MB in use           =     65.08
 MB left             =   2934.92
 MB needed           =     16.24
 Data fit in memory  = YES
Calculating RI/J V-Matrix + Cholesky decomp.... done (  0.4 sec)
Calculating Nuclear repulsion               ... done (  0.0 sec) ENN=   9669.969983183504 Eh

Diagonalization of the overlap matrix:
Smallest eigenvalue                        ... 5.707e-04
Time for diagonalization                   ...    0.118 sec
Threshold for overlap eigenvalues          ... 1.000e-07
Number of eigenvalues below threshold      ... 0
Time for construction of square roots      ...    0.071 sec
Total time needed                          ...    0.196 sec

-------------------
DFT GRID GENERATION
-------------------

General Integration Accuracy     IntAcc      ... 4.388
Radial Grid Type                 RadialGrid  ... OptM3 with GC (2021)
Angular Grid (max. ang.)         AngularGrid ... 4 (Lebedev-302)
Angular grid pruning method      GridPruning ... 4 (adaptive)
Weight generation scheme         WeightScheme... mBecke (2022)
Basis function cutoff            BFCut       ... 1.0000e-11
Integration weight cutoff        WCut        ... 1.0000e-14
Partially contracted basis set               ... off
Rotationally invariant grid construction     ... off
Angular grids for H and He will be reduced by one unit

Total number of grid points                  ...   483637
Total number of batches                      ...     7603
Average number of points per batch           ...       63
Average number of grid points per atom       ...     4742

--------------------
COSX GRID GENERATION
--------------------

GRIDX 1
-------
General Integration Accuracy     IntAcc      ... 3.816
Radial Grid Type                 RadialGrid  ... OptM3 with GC (2021)
Angular Grid (max. ang.)         AngularGrid ... 1 (Lebedev-50)
Angular grid pruning method      GridPruning ... 4 (adaptive)
Weight generation scheme         WeightScheme... mBecke (2022)
Basis function cutoff            BFCut       ... 1.0000e-11
Integration weight cutoff        WCut        ... 1.0000e-14
Partially contracted basis set               ... on
Rotationally invariant grid construction     ... off
Angular grids for H and He will be reduced by one unit

Total number of grid points                  ...    63187
Total number of batches                      ...      561
Average number of points per batch           ...      112
Average number of grid points per atom       ...      619
UseSFitting                                  ... on

GRIDX 2
-------
General Integration Accuracy     IntAcc      ... 4.020
Radial Grid Type                 RadialGrid  ... OptM3 with GC (2021)
Angular Grid (max. ang.)         AngularGrid ... 2 (Lebedev-110)
Angular grid pruning method      GridPruning ... 4 (adaptive)
Weight generation scheme         WeightScheme... mBecke (2022)
Basis function cutoff            BFCut       ... 1.0000e-11
Integration weight cutoff        WCut        ... 1.0000e-14
Partially contracted basis set               ... on
Rotationally invariant grid construction     ... off
Angular grids for H and He will be reduced by one unit

Total number of grid points                  ...   130938
Total number of batches                      ...     1074
Average number of points per batch           ...      121
Average number of grid points per atom       ...     1284
UseSFitting                                  ... on

GRIDX 3
-------
General Integration Accuracy     IntAcc      ... 4.338
Radial Grid Type                 RadialGrid  ... OptM3 with GC (2021)
Angular Grid (max. ang.)         AngularGrid ... 3 (Lebedev-194)
Angular grid pruning method      GridPruning ... 4 (adaptive)
Weight generation scheme         WeightScheme... mBecke (2022)
Basis function cutoff            BFCut       ... 1.0000e-11
Integration weight cutoff        WCut        ... 1.0000e-14
Partially contracted basis set               ... on
Rotationally invariant grid construction     ... off
Angular grids for H and He will be reduced by one unit

Total number of grid points                  ...   285836
Total number of batches                      ...     2290
Average number of points per batch           ...      124
Average number of grid points per atom       ...     2802
UseSFitting                                  ... on
Grids setup in   6.3 sec
Initializing property integral containers    ... done (  0.0 sec)

SHARK setup successfully completed in   7.3 seconds

Maximum memory used throughout the entire STARTUP-calculation: 156.9 MB


           ************************************************************
           *        Program running with 8 parallel MPI-processes     *
           *              working on a common directory               *
           ************************************************************
-------------------------------------------------------------------------------
                                 ORCA GUESS
                   Start orbitals & Density for SCF / CASSCF
-------------------------------------------------------------------------------

------------
SCF SETTINGS
------------
Hamiltonian:
 Density Functional     Method          .... DFT(GTOs)
 Exchange Functional    Exchange        .... WB97X-D3
 Correlation Functional Correlation     .... WB97X-D3
 Gradients option       PostSCFGGA      .... off
 Hybrid DFT is turned on
   Fraction HF Exchange ScalHFX         ....  0.195728
   Scaling of DF-GGA-X  ScalDFX         ....  0.000000
   Scaling of DF-GGA-C  ScalDFC         ....  1.000000
   Scaling of DF-LDA-C  ScalLDAC        ....  1.000000
   Perturbative correction              ....  0.000000
 Long-range corrected/Screened/Range-Separated Hybrid DFT is turned on
   Amount of maximum screened exact exchange              ....  0.804272
   Range separation parameter mu (erf(mu*r12)/r12)        ....  0.250000
 RI-approximation to the Coulomb term is turned on
   Number of AuxJ basis functions       .... 3292
   RIJ-COSX (HFX calculated with COS-X)).... on


General Settings:
 Integral files         IntName         .... ../inputs/compound_08_wb97xd3_def2svp_cpcm_water_freq
 Hartree-Fock type      HFTyp           .... RHF
 Total Charge           Charge          ....    0
 Multiplicity           Mult            ....    1
 Number of Electrons    NEL             ....  448
 Basis Dimension        Dim             .... 1031
 Nuclear Repulsion      ENuc            ....   9669.9699831835 Eh

Convergence Acceleration:
 AO-DIIS                CNVDIIS         .... on
   Start iteration      DIISMaxIt       ....    12
   Startup error        DIISStart       ....  0.200000
   # of expansion vecs  DIISMaxEq       ....     5
   Bias factor          DIISBfac        ....   1.050
   Max. coefficient     DIISMaxC        ....  10.000
 MO-DIIS                CNVKDIIS        .... off
 Trust-Rad. Augm. Hess. CNVTRAH         .... auto
   Auto Start mean grad. ratio tolernc. ....  1.125000
   Auto Start start iteration           ....     1
   Auto Start num. interpolation iter.  ....    10
   Max. Number of Micro iterations      ....    24
   Max. Number of Macro iterations      .... Maxiter - #DIIS iter
   Number of Davidson start vectors     ....     2
   Converg. threshold    (grad. norm)   ....   1.000e-05
   Grad. Scal. Fac. for Micro threshold ....   0.100
   Minimum threshold for Micro iter.    ....   1.000e-02
   NR start threshold (gradient norm)   ....   1.000e-04
   Initial trust radius                 ....   0.400
   Minimum AH scaling param. (alpha)    ....   1.000
   Maximum AH scaling param. (alpha)    .... 1000.000
   Quad. conv. algorithm                .... NR
   White noise on init. David. guess    .... on
   Maximum white noise                  ....   0.010
   Pseudo random numbers                .... off
   Inactive MOs                         .... canonical
   Orbital update algorithm             .... Taylor
   Preconditioner                       .... Diag
   Full preconditioner red. dimension   ....   250
 SOSCF                 CNVSOSCF           .... on
   Start iteration     SOSCFMaxIt         ....   150
   Startup grad/error  SOSCFStart         ....  0.003300
   Hessian update      SOSCFHessUp        .... L-BFGS
   Autom. constraints  SOSCFAutoConstrain .... off
 Level Shifting         CNVShift        .... on
   Level shift para.    LevelShift      ....    0.2500
   Turn off err/grad.   ShiftErr        ....    0.0010
 Zerner damping         CNVZerner       .... off
 Static damping         CNVDamp         .... on
   Fraction old density DampFac         ....    0.7000
   Max. Damping (<1)    DampMax         ....    0.9800
   Min. Damping (>=0)   DampMin         ....    0.0000
   Turn off err/grad.   DampErr         ....    0.1000

SCF Procedure:
 Maximum # iterations   MaxIter         ....   125
 SCF integral mode      SCFMode         .... Direct
   Integral package                     .... SHARK and LIBINT hybrid scheme
 Reset frequency        DirectResetFreq ....    20
 Integral Threshold     Thresh          ....  2.500e-11 Eh
 Primitive CutOff       TCut            ....  2.500e-12 Eh

Convergence Tolerance:
 Convergence Check Mode ConvCheckMode   .... Total+1el-Energy
 Convergence forced     ConvForced      .... 0
 Energy Change          TolE            ....  1.000e-08 Eh
 1-El. energy change                    ....  1.000e-05 Eh
 Orbital Gradient       TolG            ....  1.000e-05
 Orbital Rotation angle TolX            ....  1.000e-05
 DIIS Error             TolErr          ....  5.000e-07

---------------------
INITIAL GUESS: MOREAD
---------------------
Guess MOs are being read from file: ../inputs/compound_08_wb97xd3_def2svp_cpcm_water_restart_cycle80_carthess_opt.gbw
Input Geometry matches current geometry (good)
Input basis set matches current basis set (good)
Occupation numbers will be reassigned to an Aufbau configuration
MOs were renormalized
MOs were reorthogonalized (Cholesky)
                      ------------------
                      INITIAL GUESS DONE (   0.6 sec)
                      ------------------
             **** ENERGY FILE WAS UPDATED (../inputs/compound_08_wb97xd3_def2svp_cpcm_water_freq.en.tmp) ****
Finished Guess after   1.2 sec
Maximum memory used throughout the entire GUESS-calculation: 113.2 MB


           ************************************************************
           *        Program running with 8 parallel MPI-processes     *
           *              working on a common directory               *
           ************************************************************

-------------------------------------------------------------------------------------------
                                      ORCA LEAN-SCF
                              memory conserving SCF solver
-------------------------------------------------------------------------------------------

--------------------
CPCM SOLVATION MODEL
--------------------
CPCM parameters:
  Epsilon                                         ...      80.1510
  Refrac                                          ...       1.3328
  Rsolv                                           ...       1.3000
  Surface type                                    ... GAUSSIAN VDW
  Discretization scheme                           ... Constant charge density
    Threshold for H atoms                         ...       5.0000 (charges/Ang^2)
    Threshold for non-H atoms                     ...       5.0000 (charges/Ang^2)
  Epsilon function type                           ...         CPCM
Solvent:                                          ... WATER
Radii:
  Scheme                                          ... Element-dependent radii
  Radius for S  used is    4.0818 Bohr (=   2.1600 Ang.)
  Radius for C  used is    3.8550 Bohr (=   2.0400 Ang.)
  Radius for N  used is    3.5149 Bohr (=   1.8600 Ang.)
  Radius for O  used is    3.4469 Bohr (=   1.8240 Ang.)
  Radius for H  used is    2.4944 Bohr (=   1.3200 Ang.)
Calculating surface                               ...        done! (  0.0s)
Cavity surface points                             ...         7925
Cavity Volume                                     ...    6080.1802
Cavity Surface-area                               ...    2931.3285
Calculating surface distance matrix               ...        done! (  0.4s)
Performing Cholesky decomposition & store         ...        done! (  2.0s)
Overall time for CPCM initialization              ...                 2.5s

----------------------------------------D-I-I-S--------------------------------------------
Iteration    Energy (Eh)           Delta-E    RMSDP     MaxDP     DIISErr   Damp  Time(sec)
-------------------------------------------------------------------------------------------
               ***  Starting incremental Fock matrix formation  ***
                              *** Initializing SOSCF ***
---------------------------------------S-O-S-C-F--------------------------------------
Iteration    Energy (Eh)           Delta-E    RMSDP     MaxDP     MaxGrad    Time(sec)
--------------------------------------------------------------------------------------
    1    -3671.5121589632781252     0.00e+00  9.98e-07  8.75e-05  1.84e-07    38.1
               *** Restarting incremental Fock matrix formation ***
    2    -3671.5121589636164572    -3.38e-10  2.11e-07  2.10e-05  3.29e-07    38.9
                  *** Gradient check signals convergence ***

               *****************************************************
               *                     SUCCESS                       *
               *           SCF CONVERGED AFTER   2 CYCLES          *
               *****************************************************

Recomputing exchange energy using gridx3       ... done (   62.183 sec)
Old exchange energy                            :   -129.211093222 Eh
New exchange energy                            :   -129.211267062 Eh
Exchange energy change after final integration :     -0.000173841 Eh
Total energy after final integration           :  -3671.512332782 Eh
             **** ENERGY FILE WAS UPDATED (../inputs/compound_08_wb97xd3_def2svp_cpcm_water_freq.en.tmp) ****

----------------
TOTAL SCF ENERGY
----------------

Total Energy       :      -3671.51233278157270 Eh          -99906.92975 eV

Components:
Nuclear Repulsion  :       9669.96998318350416 Eh          263133.26068 eV
Electronic Energy  :     -13341.40166196438986 Eh         -363037.99572 eV
One Electron Energy:     -24305.90033610705359 Eh         -661397.17293 eV
Two Electron Energy:      10964.49867414266373 Eh          298359.17721 eV
CPCM Dielectric    :         -0.08048016006482 Eh              -2.18998 eV

Virial components:
Potential Energy   :      -7314.91982454166555 Eh         -199049.08789 eV
Kinetic Energy     :       3643.40749176009285 Eh           99142.15814 eV
Virial Ratio       :          2.00771388901325

DFT components:
N(Alpha)           :      224.000217197094 electrons
N(Beta)            :      224.000217197094 electrons
N(Total)           :      448.000434394188 electrons
E(XC)              :     -301.430719956523 Eh       

CPCM Solvation Model Properties:
Surface-charge          :         -0.03070330426632
Corrected charge        :         -0.00000000000000
Outlying charge corr.   :          0.00003400385938 Eh               0.00093 eV
Free-energy (cav+disp)  :  This term is not implemented in the current solvation scheme

---------------
SCF CONVERGENCE
---------------

  Last Energy change         ...    3.3833e-10  Tolerance :   1.0000e-08
  Last MAX-Density change    ...    2.1001e-05  Tolerance :   1.0000e-07
  Last RMS-Density change    ...    2.1075e-07  Tolerance :   5.0000e-09
  Last DIIS Error            ...    2.7142e-06  Tolerance :   5.0000e-07
  Last Orbital Gradient      ...    3.2896e-07  Tolerance :   1.0000e-05
  Last Orbital Rotation      ...    9.4938e-07  Tolerance :   1.0000e-05


----------------
ORBITAL ENERGIES
----------------

  NO   OCC          E(Eh)            E(eV) 
   0   2.0000     -88.943876     -2420.2859 
   1   2.0000     -88.875438     -2418.4236 
   2   2.0000     -19.300556      -525.1948 
   3   2.0000     -19.299643      -525.1700 
   4   2.0000     -19.297808      -525.1200 
   5   2.0000     -19.297516      -525.1121 
   6   2.0000     -19.297167      -525.1026 
   7   2.0000     -19.296311      -525.0793 
   8   2.0000     -19.289050      -524.8817 
   9   2.0000     -19.277913      -524.5787 
  10   2.0000     -19.276423      -524.5381 
  11   2.0000     -19.274953      -524.4981 
  12   2.0000     -19.272936      -524.4432 
  13   2.0000     -19.268586      -524.3249 
  14   2.0000     -19.241607      -523.5907 
  15   2.0000     -19.241082      -523.5765 
  16   2.0000     -19.240068      -523.5489 
  17   2.0000     -19.239509      -523.5337 
  18   2.0000     -19.239463      -523.5324 
  19   2.0000     -19.239291      -523.5277 
  20   2.0000     -19.232433      -523.3411 
  21   2.0000     -14.505687      -394.7198 
  22   2.0000     -14.488016      -394.2390 
  23   2.0000     -14.466983      -393.6666 
  24   2.0000     -10.436280      -283.9856 
  25   2.0000     -10.435529      -283.9652 
  26   2.0000     -10.434362      -283.9334 
  27   2.0000     -10.434312      -283.9321 
  28   2.0000     -10.434295      -283.9316 
  29   2.0000     -10.433094      -283.8989 
  30   2.0000     -10.427916      -283.7580 
  31   2.0000     -10.415744      -283.4268 
  32   2.0000     -10.410803      -283.2923 
  33   2.0000     -10.409082      -283.2455 
  34   2.0000     -10.387865      -282.6682 
  35   2.0000     -10.373883      -282.2877 
  36   2.0000     -10.367982      -282.1271 
  37   2.0000     -10.367597      -282.1167 
  38   2.0000     -10.366935      -282.0987 
  39   2.0000     -10.365583      -282.0618 
  40   2.0000     -10.365285      -282.0537 
  41   2.0000     -10.362975      -281.9909 
  42   2.0000     -10.359426      -281.8943 
  43   2.0000     -10.359206      -281.8883 
  44   2.0000     -10.355518      -281.7880 
  45   2.0000     -10.351497      -281.6786 
  46   2.0000     -10.350624      -281.6548 
  47   2.0000     -10.349045      -281.6118 
  48   2.0000     -10.340687      -281.3844 
  49   2.0000     -10.313483      -280.6441 
  50   2.0000     -10.299809      -280.2720 
  51   2.0000     -10.298982      -280.2496 
  52   2.0000     -10.297709      -280.2149 
  53   2.0000     -10.297699      -280.2146 
  54   2.0000     -10.296323      -280.1772 
  55   2.0000     -10.295469      -280.1539 
  56   2.0000     -10.295395      -280.1519 
  57   2.0000      -8.058911      -219.2941 
  58   2.0000      -7.992508      -217.4872 
  59   2.0000      -6.018805      -163.7800 
  60   2.0000      -6.015183      -163.6814 
  61   2.0000      -6.008608      -163.5025 
  62   2.0000      -5.953514      -162.0034 
  63   2.0000      -5.946280      -161.8065 
  64   2.0000      -5.943759      -161.7379 
  65   2.0000      -1.241821       -33.7917 
  66   2.0000      -1.239956       -33.7409 
  67   2.0000      -1.237920       -33.6855 
  68   2.0000      -1.231143       -33.5011 
  69   2.0000      -1.229939       -33.4684 
  70   2.0000      -1.228744       -33.4358 
  71   2.0000      -1.224353       -33.3163 
  72   2.0000      -1.221390       -33.2357 
  73   2.0000      -1.210816       -32.9480 
  74   2.0000      -1.187389       -32.3105 
  75   2.0000      -1.162648       -31.6373 
  76   2.0000      -1.152996       -31.3746 
  77   2.0000      -1.141747       -31.0685 
  78   2.0000      -1.141146       -31.0522 
  79   2.0000      -1.136976       -30.9387 
  80   2.0000      -1.134698       -30.8767 
  81   2.0000      -1.134053       -30.8592 
  82   2.0000      -1.132959       -30.8294 
  83   2.0000      -1.128351       -30.7040 
  84   2.0000      -1.127355       -30.6769 
  85   2.0000      -1.059387       -28.8274 
  86   2.0000      -0.977744       -26.6058 
  87   2.0000      -0.957373       -26.0514 
  88   2.0000      -0.954530       -25.9741 
  89   2.0000      -0.948555       -25.8115 
  90   2.0000      -0.935949       -25.4685 
  91   2.0000      -0.920621       -25.0514 
  92   2.0000      -0.892121       -24.2759 
  93   2.0000      -0.887836       -24.1592 
  94   2.0000      -0.886110       -24.1123 
  95   2.0000      -0.876010       -23.8375 
  96   2.0000      -0.872378       -23.7386 
  97   2.0000      -0.868334       -23.6286 
  98   2.0000      -0.856885       -23.3170 
  99   2.0000      -0.852412       -23.1953 
 100   2.0000      -0.850026       -23.1304 
 101   2.0000      -0.829078       -22.5603 
 102   2.0000      -0.823195       -22.4003 
 103   2.0000      -0.811924       -22.0936 
 104   2.0000      -0.795896       -21.6574 
 105   2.0000      -0.782562       -21.2946 
 106   2.0000      -0.777891       -21.1675 
 107   2.0000      -0.775205       -21.0944 
 108   2.0000      -0.770188       -20.9579 
 109   2.0000      -0.757447       -20.6112 
 110   2.0000      -0.733150       -19.9500 
 111   2.0000      -0.728193       -19.8151 
 112   2.0000      -0.723106       -19.6767 
 113   2.0000      -0.715431       -19.4679 
 114   2.0000      -0.708378       -19.2759 
 115   2.0000      -0.704441       -19.1688 
 116   2.0000      -0.696568       -18.9546 
 117   2.0000      -0.693477       -18.8705 
 118   2.0000      -0.679981       -18.5032 
 119   2.0000      -0.677753       -18.4426 
 120   2.0000      -0.673856       -18.3366 
 121   2.0000      -0.668161       -18.1816 
 122   2.0000      -0.663006       -18.0413 
 123   2.0000      -0.660302       -17.9677 
 124   2.0000      -0.652669       -17.7600 
 125   2.0000      -0.646637       -17.5959 
 126   2.0000      -0.641999       -17.4697 
 127   2.0000      -0.637694       -17.3525 
 128   2.0000      -0.629213       -17.1217 
 129   2.0000      -0.622382       -16.9359 
 130   2.0000      -0.617729       -16.8093 
 131   2.0000      -0.614898       -16.7322 
 132   2.0000      -0.608567       -16.5599 
 133   2.0000      -0.605095       -16.4655 
 134   2.0000      -0.603946       -16.4342 
 135   2.0000      -0.603714       -16.4279 
 136   2.0000      -0.601959       -16.3801 
 137   2.0000      -0.600335       -16.3359 
 138   2.0000      -0.598860       -16.2958 
 139   2.0000      -0.597453       -16.2575 
 140   2.0000      -0.597304       -16.2535 
 141   2.0000      -0.594944       -16.1892 
 142   2.0000      -0.589050       -16.0289 
 143   2.0000      -0.587866       -15.9967 
 144   2.0000      -0.585269       -15.9260 
 145   2.0000      -0.583214       -15.8701 
 146   2.0000      -0.581531       -15.8243 
 147   2.0000      -0.580120       -15.7859 
 148   2.0000      -0.577998       -15.7281 
 149   2.0000      -0.575393       -15.6572 
 150   2.0000      -0.571722       -15.5574 
 151   2.0000      -0.566506       -15.4154 
 152   2.0000      -0.565352       -15.3840 
 153   2.0000      -0.563894       -15.3443 
 154   2.0000      -0.561045       -15.2668 
 155   2.0000      -0.554028       -15.0759 
 156   2.0000      -0.553602       -15.0643 
 157   2.0000      -0.545439       -14.8422 
 158   2.0000      -0.541972       -14.7478 
 159   2.0000      -0.537915       -14.6374 
 160   2.0000      -0.526430       -14.3249 
 161   2.0000      -0.525705       -14.3052 
 162   2.0000      -0.523521       -14.2457 
 163   2.0000      -0.520693       -14.1688 
 164   2.0000      -0.517923       -14.0934 
 165   2.0000      -0.516995       -14.0681 
 166   2.0000      -0.514920       -14.0117 
 167   2.0000      -0.514158       -13.9910 
 168   2.0000      -0.507151       -13.8003 
 169   2.0000      -0.505362       -13.7516 
 170   2.0000      -0.503977       -13.7139 
 171   2.0000      -0.501519       -13.6470 
 172   2.0000      -0.500142       -13.6096 
 173   2.0000      -0.499432       -13.5902 
 174   2.0000      -0.498115       -13.5544 
 175   2.0000      -0.495245       -13.4763 
 176   2.0000      -0.494553       -13.4575 
 177   2.0000      -0.491780       -13.3820 
 178   2.0000      -0.488452       -13.2915 
 179   2.0000      -0.487436       -13.2638 
 180   2.0000      -0.483534       -13.1576 
 181   2.0000      -0.481721       -13.1083 
 182   2.0000      -0.481282       -13.0963 
 183   2.0000      -0.477308       -12.9882 
 184   2.0000      -0.474428       -12.9098 
 185   2.0000      -0.473629       -12.8881 
 186   2.0000      -0.470093       -12.7919 
 187   2.0000      -0.468286       -12.7427 
 188   2.0000      -0.465147       -12.6573 
 189   2.0000      -0.463889       -12.6231 
 190   2.0000      -0.462415       -12.5830 
 191   2.0000      -0.459345       -12.4994 
 192   2.0000      -0.456221       -12.4144 
 193   2.0000      -0.452659       -12.3175 
 194   2.0000      -0.451975       -12.2989 
 195   2.0000      -0.448617       -12.2075 
 196   2.0000      -0.448250       -12.1975 
 197   2.0000      -0.443574       -12.0703 
 198   2.0000      -0.436686       -11.8828 
 199   2.0000      -0.433565       -11.7979 
 200   2.0000      -0.431141       -11.7319 
 201   2.0000      -0.425602       -11.5812 
 202   2.0000      -0.423868       -11.5340 
 203   2.0000      -0.417506       -11.3609 
 204   2.0000      -0.416777       -11.3411 
 205   2.0000      -0.405058       -11.0222 
 206   2.0000      -0.402613       -10.9557 
 207   2.0000      -0.396046       -10.7769 
 208   2.0000      -0.393777       -10.7152 
 209   2.0000      -0.391556       -10.6548 
 210   2.0000      -0.390291       -10.6204 
 211   2.0000      -0.389093       -10.5878 
 212   2.0000      -0.385452       -10.4887 
 213   2.0000      -0.384952       -10.4751 
 214   2.0000      -0.383360       -10.4318 
 215   2.0000      -0.381869       -10.3912 
 216   2.0000      -0.380018       -10.3408 
 217   2.0000      -0.375397       -10.2151 
 218   2.0000      -0.370985       -10.0950 
 219   2.0000      -0.365397        -9.9430 
 220   2.0000      -0.350497        -9.5375 
 221   2.0000      -0.336913        -9.1679 
 222   2.0000      -0.311309        -8.4711 
 223   2.0000      -0.307709        -8.3732 
[...]
freq.     713.29  E(vib)   ...       0.07 
freq.     732.41  E(vib)   ...       0.06 
freq.     757.71  E(vib)   ...       0.06 
freq.     787.50  E(vib)   ...       0.05 
freq.     798.81  E(vib)   ...       0.05 
freq.     818.94  E(vib)   ...       0.05 
freq.     827.54  E(vib)   ...       0.04 
freq.     853.14  E(vib)   ...       0.04 
freq.     855.42  E(vib)   ...       0.04 
freq.     862.19  E(vib)   ...       0.04 
freq.     893.92  E(vib)   ...       0.03 
freq.     923.25  E(vib)   ...       0.03 
freq.     928.32  E(vib)   ...       0.03 
freq.     942.04  E(vib)   ...       0.03 
freq.     946.22  E(vib)   ...       0.03 
freq.     948.23  E(vib)   ...       0.03 
freq.     950.04  E(vib)   ...       0.03 
freq.     952.57  E(vib)   ...       0.03 
freq.     960.05  E(vib)   ...       0.03 
freq.     964.74  E(vib)   ...       0.03 
freq.     976.33  E(vib)   ...       0.03 
freq.     979.39  E(vib)   ...       0.03 
freq.     986.44  E(vib)   ...       0.02 
freq.    1001.51  E(vib)   ...       0.02 
freq.    1004.80  E(vib)   ...       0.02 
freq.    1008.59  E(vib)   ...       0.02 
freq.    1010.29  E(vib)   ...       0.02 
freq.    1011.22  E(vib)   ...       0.02 
freq.    1014.52  E(vib)   ...       0.02 
freq.    1020.07  E(vib)   ...       0.02 
freq.    1030.91  E(vib)   ...       0.02 
freq.    1037.94  E(vib)   ...       0.02 
freq.    1042.01  E(vib)   ...       0.02 
freq.    1052.31  E(vib)   ...       0.02 
freq.    1052.91  E(vib)   ...       0.02 
freq.    1053.98  E(vib)   ...       0.02 
freq.    1054.57  E(vib)   ...       0.02 
freq.    1054.90  E(vib)   ...       0.02 
freq.    1056.51  E(vib)   ...       0.02 
freq.    1062.66  E(vib)   ...       0.02 
freq.    1062.85  E(vib)   ...       0.02 
freq.    1076.84  E(vib)   ...       0.02 
freq.    1080.35  E(vib)   ...       0.02 
freq.    1093.50  E(vib)   ...       0.02 
freq.    1098.90  E(vib)   ...       0.02 
freq.    1099.60  E(vib)   ...       0.02 
freq.    1106.07  E(vib)   ...       0.02 
freq.    1110.49  E(vib)   ...       0.02 
freq.    1118.67  E(vib)   ...       0.01 
freq.    1124.18  E(vib)   ...       0.01 
freq.    1124.82  E(vib)   ...       0.01 
freq.    1135.76  E(vib)   ...       0.01 
freq.    1137.17  E(vib)   ...       0.01 
freq.    1146.71  E(vib)   ...       0.01 
freq.    1156.20  E(vib)   ...       0.01 
freq.    1160.55  E(vib)   ...       0.01 
freq.    1162.50  E(vib)   ...       0.01 
freq.    1165.16  E(vib)   ...       0.01 
freq.    1173.31  E(vib)   ...       0.01 
freq.    1175.07  E(vib)   ...       0.01 
freq.    1178.80  E(vib)   ...       0.01 
freq.    1190.46  E(vib)   ...       0.01 
freq.    1192.61  E(vib)   ...       0.01 
freq.    1195.36  E(vib)   ...       0.01 
freq.    1200.32  E(vib)   ...       0.01 
freq.    1202.21  E(vib)   ...       0.01 
freq.    1222.95  E(vib)   ...       0.01 
freq.    1233.55  E(vib)   ...       0.01 
freq.    1248.93  E(vib)   ...       0.01 
freq.    1254.29  E(vib)   ...       0.01 
freq.    1258.52  E(vib)   ...       0.01 
freq.    1273.25  E(vib)   ...       0.01 
freq.    1274.74  E(vib)   ...       0.01 
freq.    1275.80  E(vib)   ...       0.01 
freq.    1277.84  E(vib)   ...       0.01 
freq.    1280.15  E(vib)   ...       0.01 
freq.    1282.29  E(vib)   ...       0.01 
freq.    1285.86  E(vib)   ...       0.01 
freq.    1295.04  E(vib)   ...       0.01 
freq.    1296.27  E(vib)   ...       0.01 
freq.    1303.24  E(vib)   ...       0.01 
freq.    1304.55  E(vib)   ...       0.01 
freq.    1308.63  E(vib)   ...       0.01 
freq.    1314.24  E(vib)   ...       0.01 
freq.    1315.85  E(vib)   ...       0.01 
freq.    1320.64  E(vib)   ...       0.01 
freq.    1322.36  E(vib)   ...       0.01 
freq.    1329.90  E(vib)   ...       0.01 
freq.    1344.01  E(vib)   ...       0.01 
freq.    1345.60  E(vib)   ...       0.01 
freq.    1352.01  E(vib)   ...       0.01 
freq.    1354.99  E(vib)   ...       0.01 
freq.    1358.87  E(vib)   ...       0.01 
freq.    1361.63  E(vib)   ...       0.01 
freq.    1371.39  E(vib)   ...       0.01 
freq.    1378.22  E(vib)   ...       0.01 
freq.    1379.65  E(vib)   ...       0.01 
freq.    1382.35  E(vib)   ...       0.01 
freq.    1387.30  E(vib)   ...       0.00 
freq.    1389.33  E(vib)   ...       0.00 
freq.    1392.19  E(vib)   ...       0.00 
freq.    1393.63  E(vib)   ...       0.00 
freq.    1396.84  E(vib)   ...       0.00 
freq.    1397.52  E(vib)   ...       0.00 
freq.    1400.05  E(vib)   ...       0.00 
freq.    1402.58  E(vib)   ...       0.00 
freq.    1405.59  E(vib)   ...       0.00 
freq.    1415.38  E(vib)   ...       0.00 
freq.    1418.72  E(vib)   ...       0.00 
freq.    1422.71  E(vib)   ...       0.00 
freq.    1425.39  E(vib)   ...       0.00 
freq.    1425.84  E(vib)   ...       0.00 
freq.    1426.24  E(vib)   ...       0.00 
freq.    1426.39  E(vib)   ...       0.00 
freq.    1428.77  E(vib)   ...       0.00 
freq.    1430.08  E(vib)   ...       0.00 
freq.    1431.10  E(vib)   ...       0.00 
freq.    1432.23  E(vib)   ...       0.00 
freq.    1433.89  E(vib)   ...       0.00 
freq.    1434.36  E(vib)   ...       0.00 
freq.    1434.98  E(vib)   ...       0.00 
freq.    1435.93  E(vib)   ...       0.00 
freq.    1436.54  E(vib)   ...       0.00 
freq.    1436.95  E(vib)   ...       0.00 
freq.    1438.38  E(vib)   ...       0.00 
freq.    1438.86  E(vib)   ...       0.00 
freq.    1442.13  E(vib)   ...       0.00 
freq.    1445.50  E(vib)   ...       0.00 
freq.    1446.63  E(vib)   ...       0.00 
freq.    1448.73  E(vib)   ...       0.00 
freq.    1452.88  E(vib)   ...       0.00 
freq.    1459.59  E(vib)   ...       0.00 
freq.    1465.59  E(vib)   ...       0.00 
freq.    1468.42  E(vib)   ...       0.00 
freq.    1493.98  E(vib)   ...       0.00 
freq.    1554.46  E(vib)   ...       0.00 
freq.    1604.85  E(vib)   ...       0.00 
freq.    1802.30  E(vib)   ...       0.00 
freq.    1845.03  E(vib)   ...       0.00 
freq.    1854.82  E(vib)   ...       0.00 
freq.    1856.01  E(vib)   ...       0.00 
freq.    1859.37  E(vib)   ...       0.00 
freq.    1860.72  E(vib)   ...       0.00 
freq.    1860.84  E(vib)   ...       0.00 
freq.    1865.52  E(vib)   ...       0.00 
freq.    3058.45  E(vib)   ...       0.00 
freq.    3076.63  E(vib)   ...       0.00 
freq.    3079.49  E(vib)   ...       0.00 
freq.    3080.41  E(vib)   ...       0.00 
freq.    3083.53  E(vib)   ...       0.00 
freq.    3085.37  E(vib)   ...       0.00 
freq.    3085.92  E(vib)   ...       0.00 
freq.    3085.93  E(vib)   ...       0.00 
freq.    3086.07  E(vib)   ...       0.00 
freq.    3086.52  E(vib)   ...       0.00 
freq.    3089.98  E(vib)   ...       0.00 
freq.    3090.60  E(vib)   ...       0.00 
freq.    3115.55  E(vib)   ...       0.00 
freq.    3115.97  E(vib)   ...       0.00 
freq.    3125.06  E(vib)   ...       0.00 
freq.    3129.55  E(vib)   ...       0.00 
freq.    3131.80  E(vib)   ...       0.00 
freq.    3132.25  E(vib)   ...       0.00 
freq.    3139.56  E(vib)   ...       0.00 
freq.    3143.06  E(vib)   ...       0.00 
freq.    3143.53  E(vib)   ...       0.00 
freq.    3146.50  E(vib)   ...       0.00 
freq.    3155.54  E(vib)   ...       0.00 
freq.    3168.33  E(vib)   ...       0.00 
freq.    3180.43  E(vib)   ...       0.00 
freq.    3184.38  E(vib)   ...       0.00 
freq.    3186.40  E(vib)   ...       0.00 
freq.    3187.21  E(vib)   ...       0.00 
freq.    3188.04  E(vib)   ...       0.00 
freq.    3188.25  E(vib)   ...       0.00 
freq.    3189.35  E(vib)   ...       0.00 
freq.    3189.43  E(vib)   ...       0.00 
freq.    3200.03  E(vib)   ...       0.00 
freq.    3219.87  E(vib)   ...       0.00 
freq.    3223.56  E(vib)   ...       0.00 
freq.    3225.17  E(vib)   ...       0.00 
freq.    3225.50  E(vib)   ...       0.00 
freq.    3226.34  E(vib)   ...       0.00 
freq.    3226.93  E(vib)   ...       0.00 
freq.    3227.39  E(vib)   ...       0.00 
freq.    3227.81  E(vib)   ...       0.00 
freq.    3232.60  E(vib)   ...       0.00 
freq.    3590.81  E(vib)   ...       0.00 
freq.    3599.16  E(vib)   ...       0.00 
freq.    3746.43  E(vib)   ...       0.00 

------------
INNER ENERGY
------------

The inner energy is: U= E(el) + E(ZPE) + E(vib) + E(rot) + E(trans)
    E(el)   - is the total energy from the electronic structure calculation
              = E(kin-el) + E(nuc-el) + E(el-el) + E(nuc-nuc)
    E(ZPE)  - the the zero temperature vibrational energy from the frequency calculation
    E(vib)  - the the finite temperature correction to E(ZPE) due to population
              of excited vibrational states
    E(rot)  - is the rotational thermal energy
    E(trans)- is the translational thermal energy

Summary of contributions to the inner energy U:
Electronic energy                ...  -3671.58536363 Eh
Zero point energy                ...      0.81364733 Eh     510.57 kcal/mol
Thermal vibrational correction   ...      0.05661583 Eh      35.53 kcal/mol
Thermal rotational correction    ...      0.00141627 Eh       0.89 kcal/mol
Thermal translational correction ...      0.00141627 Eh       0.89 kcal/mol
-----------------------------------------------------------------------
Total thermal energy                  -3670.71226793 Eh


Summary of corrections to the electronic energy:
(perhaps to be used in another calculation)
Total thermal correction                  0.05944838 Eh      37.30 kcal/mol
Non-thermal (ZPE) correction              0.81364733 Eh     510.57 kcal/mol
-----------------------------------------------------------------------
Total correction                          0.87309571 Eh     547.87 kcal/mol


--------
ENTHALPY
--------

The enthalpy is H = U + kB*T
                kB is Boltzmann's constant
Total thermal energy              ...  -3670.71226793 Eh 
Thermal Enthalpy correction       ...      0.00094421 Eh       0.59 kcal/mol
-----------------------------------------------------------------------
Total Enthalpy                    ...  -3670.71132372 Eh


Note: Only C1 symmetry has been detected, increase convergence thresholds 
      if your molecule has a higher symmetry. Symmetry factor of 1.0 is   
      used for the rotational entropy correction. 
 

Note: Rotational entropy computed according to Herzberg 
Infrared and Raman Spectra, Chapter V,1, Van Nostrand Reinhold, 1945 
Point Group:  C1, Symmetry Number:   1  
Rotational constants in cm-1:     0.001984     0.000779     0.000684 

Vibrational entropy computed according to the QRRHO of S. Grimme
Chem.Eur.J. 2012 18 9955 using a reference frequency of 100.0 cm-1


-------
ENTROPY
-------

The entropy contributions are T*S = T*(S(el)+S(vib)+S(rot)+S(trans))
     S(el)   - electronic entropy
     S(vib)  - vibrational entropy
     S(rot)  - rotational entropy
     S(trans)- translational entropy
The entropies will be listed as multiplied by the temperature to get
units of energy

Electronic entropy                ...      0.00000000 Eh      0.00 kcal/mol
Vibrational entropy               ...      0.10651047 Eh     66.84 kcal/mol
Rotational entropy                ...      0.01926726 Eh     12.09 kcal/mol
Translational entropy             ...      0.02190523 Eh     13.75 kcal/mol
-----------------------------------------------------------------------
Final entropy term                ...      0.14768295 Eh     92.67 kcal/mol

In case the symmetry of your molecule has not been determined correctly
or in case you have a reason to use a different symmetry number we print 
out the resulting rotational entropy values for sn=1,12:

 non-linear molecules -----------------------------------
|  sn= 1 | S(rot)=       0.01926726 Eh     12.09 kcal/mol|
|  sn= 2 | S(rot)=       0.01861280 Eh     11.68 kcal/mol|
|  sn= 3 | S(rot)=       0.01822997 Eh     11.44 kcal/mol|
|  sn= 4 | S(rot)=       0.01795835 Eh     11.27 kcal/mol|
|  sn= 5 | S(rot)=       0.01774766 Eh     11.14 kcal/mol|
|  sn= 6 | S(rot)=       0.01757551 Eh     11.03 kcal/mol|
|  sn= 7 | S(rot)=       0.01742997 Eh     10.94 kcal/mol|
|  sn= 8 | S(rot)=       0.01730389 Eh     10.86 kcal/mol|
|  sn= 9 | S(rot)=       0.01719268 Eh     10.79 kcal/mol|
|  sn=10 | S(rot)=       0.01709320 Eh     10.73 kcal/mol|
|  sn=11 | S(rot)=       0.01700321 Eh     10.67 kcal/mol|
|  sn=12 | S(rot)=       0.01692106 Eh     10.62 kcal/mol|
 linear molecules ---------------------------------------
|  Dinfh | S(rot)=       0.01220594 Eh      7.66 kcal/mol|
|  Cinfv | S(rot)=       0.01286040 Eh      8.07 kcal/mol|
 --------------------------------------------------------


-------------------
GIBBS FREE ENERGY
-------------------

The Gibbs free energy is G = H - T*S

Total enthalpy                    ...  -3670.71132372 Eh 
Total entropy correction          ...     -0.14768295 Eh    -92.67 kcal/mol
-----------------------------------------------------------------------
Final Gibbs free energy         ...  -3670.85900667 Eh

For completeness - the Gibbs free energy minus the electronic energy
G-E(el)                           ...      0.72635696 Eh    455.79 kcal/mol


Maximum memory used throughout the entire PROP-calculation: 1408.8 MB

--------------------------------
SUGGESTED CITATIONS FOR THIS RUN
--------------------------------

Below you find a list of papers that are relevant to this ORCA run
We neither can nor want to force you to cite these papers, but we appreciate if you do
You receive ORCA, which is the product of decades of hard work by many enthusiastic individuals, for free
The only thing we kindly ask in return is that you cite our papers,
We deeply appreciate it, if you show your appreciation for ORCA by not just citing the generic ORCA reference.

Please note that relegating all ORCA citations to the supporting information does *not* help us.
SI sections are not indexed - citations you put there will not count into any citation statistics
But we need these citations in order to attract the funding resources that allow us to do what we are doing

Therefore, if you are a happy ORCA user, please consider citing a few of the papers listed below in the main body of your paper

In addition to the list printed below, the program has created the file ../inputs/compound_08_wb97xd3_def2svp_cpcm_water_freq.bibtex that contains the list in bibtex format
You can import this file easily into all common literature databanks and citation aid programs

It goes without saying that in many instances, there are alternative algorithms to achieve similar
results as the ones you have gotten from ORCA. It is, of course, also the case that in some instances
ORCA just re-implements algorithms worked out by others. We are fully aware of that and we are also
fully appreciative of our colleagues work. Hence this citation list should not be read as indicating
that the listed papers, which are focused on our own work, are the only ones worth citing. It simply
meant to make it easier for users to cite ORCA specific papers. It is not a substitute for doing your
own literature research and citing the relevant literature in a scientifically appropriate manner.

List of essential papers. We consider these as the minimum necessary citations

  1. Neese, F.
     Software update: the ORCA program system, version 6.0
     WIRES Comput. Molec. Sci. 2025 15(1), e70019
     doi.org/10.1002/wcms.70019

List of papers to cite with high priority. The work reported in these papers was absolutely
necessary for this run to complete.
Our perspective: the developers of density functionals and basis sets usually get cited in chemistry papers
Good! But without the algorithms to do something with them, the functionals or basis sets would not do anything.
Hence, in our opinion, the algorithm design and method developments papers are equally worthy of getting cited

  1. Neese, F.
     An improvement of the resolution of the identity approximation for the formation of the Coulomb matrix
     J. Comp. Chem. 2003 24(14), 1740-1747
     doi.org/10.1002/jcc.10318
  2. Neese, F.; Wennmohs, F.; Hansen, A.; Becker, U.
     Efficient, approximate and parallel Hartree-Fock and hybrid DFT calculations. A 'chain-of-spheres' algorithm for the Hartree-Fock exchange
     Chem. Phys. 2009 356(1-3), 98-109
     doi.org/10.1016/j.chemphys.2008.10.036
  3. Grimme, S.; Antony, J.; Ehrlich, S.; Krieg, H.
     A consistent and accurate ab initio parametrization of density functional dispersion correction (DFT-D) for the 94 elements H-Pu
     J. Chem. Phys. 2010 132 , 154104
     doi.org/10.1063/1.3382344
  4. Bykov, D.; Petrenko, T.; Izsak, R.; Kossmann, S.; Becker, U.; Valeev, E.; Neese, F.
     Efficient implementation of the analytic second derivatives of Hartree-Fock and hybrid DFT energies: a detailed analysis of different approximations
     Molec. Phys. 2015 113 , 1961-1977
     doi.org/10.1080/00268976.2015.1025114
  5. Garcia-Rates, M.; Neese, F.
     Efficient implementation of the analytical second derivatives of hartree-fock and hybrid DFT energies within the framework of the conductor-like polarizable continuum model
     J. Comput. Chem. 2019 40 , 1816-1828
     doi.org/10.1002/jcc.25833
  6. Garcia-Rates, M.; Neese, F.
     Effect of the Solute Cavity on the Solvation Energy and its Derivatives within the Framework of the Gaussian Charge Scheme
     J. Comput. Chem. 2020 41 , 922-939
     doi.org/10.1002/jcc.26139
  7. Helmich-Paris, B.; de Souza, B.; Neese, F.; Izsák, R.
     An improved chain of spheres for exchange algorithm
     J. Chem. Phys. 2021 155(10), 104109
     doi.org/10.1063/5.0058766
  8. Neese, F.
     The SHARK Integral Generation and Digestion System
     J. Comp. Chem. 2022 44(3), 381
     doi.org/10.1002/jcc.26942

List of suggested additional citations. These are papers that are important in the 'surrounding' of 
of this run, or papers that preceded the highly important papers. If you like your results we are grateful for a citation.

  1. Izsak, R.; Neese, F.
     An overlap fitted chain of spheres exchange method
     J. Chem. Phys. 2011 135 , 144105
     doi.org/10.1063/1.3646921
  2. Izsak, R.; Hansen, A.; Neese, F.
     The resolution of identity and chain of spheres approximations for the LPNO-CCSD singles Fock term
     Molec. Phys. 2012 110 , 2413-2417
     doi.org/10.1080/00268976.2012.687466
  3. Neese, F.
     The ORCA program system
     WIRES Comput. Molec. Sci. 2012 2(1), 73-78
     doi.org/10.1002/wcms.81
  4. Izsak, R.; Neese, F.; Klopper, W.
     Robust fitting techniques in the chain of spheres approximation to the Fock exchange: The role of the complementary space
     J. Chem. Phys. 2013 139 , 
     doi.org/10.1063/1.4819264
  5. Neese, F.
     Software update: the ORCA program system, version 4.0
     WIRES Comput. Molec. Sci. 2018 8(1), 1-6
     doi.org/10.1002/wcms.1327
  6. Neese, F.; Wennmohs, F.; Becker, U.; Riplinger, C.
     The ORCA quantum chemistry program package
     J. Chem. Phys. 2020 152(22), 224108
     doi.org/10.1063/5.0004608
  7. Neese, F.
     Software update: The ORCA program system—Version 5.0
     WIRES Comput. Molec. Sci. 2022 12(1), e1606
     doi.org/10.1002/wcms.1606

List of optional additional citations

  1. Neese, F.
     Approximate second-order SCF convergence for spin unrestricted wavefunctions
     Chem. Phys. Lett. 2000 325(1-3), 93-98
     doi.org/10.1016/s0009-2614(00)00662-x

Timings for individual modules:

Sum of individual times          ...    11296.066 sec (= 188.268 min)
Startup calculation              ...        7.931 sec (=   0.132 min)   0.1 %
SCF iterations                   ...      152.052 sec (=   2.534 min)   1.3 %
Property integrals               ...     3115.327 sec (=  51.922 min)  27.6 %
SCF Response                     ...     5936.677 sec (=  98.945 min)  52.6 %
Property calculations            ...     2084.080 sec (=  34.735 min)  18.4 %
                             ****ORCA TERMINATED NORMALLY****
TOTAL RUN TIME: 0 days 3 hours 8 minutes 17 seconds 166 msec
