
                                 *****************
                                 * O   R   C   A *
                                 *****************

                                            #,                                       
                                            ###                                      
                                            ####                                     
                                            #####                                    
                                            ######                                   
                                           ########,                                 
                                     ,,################,,,,,                         
                               ,,#################################,,                 
                          ,,##########################################,,             
                       ,#########################################, ''#####,          
                    ,#############################################,,   '####,        
                  ,##################################################,,,,####,       
                ,###########''''           ''''###############################       
              ,#####''   ,,,,##########,,,,          '''####'''          '####       
            ,##' ,,,,###########################,,,                        '##       
           ' ,,###''''                  '''############,,,                           
         ,,##''                                '''############,,,,        ,,,,,,###''
      ,#''                                            '''#######################'''  
     '                                                          ''''####''''         
             ,#######,   #######,   ,#######,      ##                                
            ,#'     '#,  ##    ##  ,#'     '#,    #''#        ,####,    ,#,          
            ##       ##  ##   ,#'  ##            #'  '#       #'       ,# #          
            ##       ##  #######   ##           ,######,      #####,      #          
            '#,     ,#'  ##    ##  '#,     ,#' ,#      #,     #,   #      #          
             '#######'   ##     ##  '#######'  #'      '#     '####' #    #          



                #########################################################
                #                        -***-                          #
                #          Department of theory and spectroscopy        #
                #                                                       #
                #                      Frank Neese                      #
                #                                                       #
                #     Directorship, Architecture, Infrastructure        #
                #                    SHARK, DRIVERS                     #
                #        Core code/Algorithms in most modules           #
                #                                                       #
                #        Max Planck Institute fuer Kohlenforschung      #
                #                Kaiser Wilhelm Platz 1                 #
                #                 D-45470 Muelheim/Ruhr                 #
                #                      Germany                          #
                #                                                       #
                #                  All rights reserved                  #
                #                        -***-                          #
                #########################################################


                         Program Version 6.1.1  -  RELEASE   -
                                (GIT: $487d211c$)
                          ($2025-11-21 10:33:24 +0100$)


 With contributions from (in alphabetic order):
[Max-Planck-Institut fuer Kohlenforschung]                               
  Daniel Aravena         : Magnetic Suceptibility                        
  Michael Atanasov       : Ab Initio Ligand Field Theory (pilot matlab implementation)
  Alexander A. Auer      : GIAO ZORA, VPT2 properties, NMR spectrum      
  Ute Becker             : All parallelization in ORCA, NUMFREQ, NUMCALC 
  Giovanni Bistoni       : ED, misc. LED, open-shell LED, HFLD           
  Dmytro Bykov           : pre 5.0 version of the SCF Hessian            
  Marcos Casanova-Páez   : Triplet and SCS-CIS(D). UHF-(DLPNO)-IP/EA/STEOM-CCSD. UHF-CVS-IP/STEOM-CCSD   
  Vijay G. Chilkuri      : MRCI spin determinant printing, contributions to CSF-ICE 
  Pauline Colinet        : FMM embedding                                 
  Dipayan Datta          : RHF DLPNO-CCSD density                        
  Achintya Kumar Dutta   : EOM-CC, STEOM-CC                              
  Nicolas Foglia         : Exact transition moments, OPA infrastructure, MCD improvements    
  Dmitry Ganyushin       : Spin-Orbit,Spin-Spin,Magnetic field MRCI      
  Miquel Garcia-Rates    : C-PCM and meta-GGA Hessian, CCSD/C-PCM, Gaussian charge scheme 
  Tiago L. C. Gouveia    : GS-ROHF, GS-ROCIS                             
  Yang Guo               : DLPNO-NEVPT2, F12-NEVPT2, CIM, IAO-localization        
  Andreas Hansen         : Spin unrestricted coupled pair/coupled cluster methods 
  Ingolf Harden          : AUTO-CI MPn and infrastructure                
  Benjamin Helmich-Paris : MC-RPA, TRAH-(SCF,CASSCF), AVAS, COSX integrals, SCF dyn. polar., MC-PDFT, srDFT 
  Lee Huntington         : MR-EOM, pCC                                   
  Robert Izsak           : Overlap fitted RIJCOSX, COSX-SCS-MP3, EOM     
  Riya Kayal             : Wick's Theorem for AUTO-CI, AUTO-CI UHF-CCSDT 
  Emily Kempfer          : AUTO-CI RHF CISDT and CCSDT, approximate NEVPT4
  Christian Kollmar      : KDIIS, OOCD, Brueckner-CCSD(T), CCSD density, CASPT2, CASPT2-K, improved NEVPT2 
  Axel Koslowski         : Symmetry handling                             
  Simone Kossmann        : meta-GGA functionals, TD-DFT gradient, OOMP2, (MP2 Hessian; deprecated post 5.0) 
  Lucas Lang             : DCDCAS, Hyperfine gauge corrections, ICE-SOC+SSC
  Marvin Lechner         : AUTO-CI (C++ implementation), FIC-MRCC        
  Spencer Leger          : CASSCF response                               
  Dagmar Lenk            : GEPOL surface, SMD, ORCA-2-JSON               
  Dimitrios Liakos       : Extrapolation schemes; Compound Job, Property file
  Dimitrios Manganas     : Further ROCIS development; embedding schemes. LFT, Crystal Embedding 
  Dimitrios Pantazis     : SARC Basis sets                               
  Anastasios Papadopoulos: AUTO-CI, single reference methods and gradients 
  Taras Petrenko         : pre 6.0 DFT Hessian and TD-DFT gradient,  ECA, NRVS 
  Petra Pikulova         : Analytic Raman intensities                    
  Peter Pinski           : DLPNO-MP2, DLPNO-MP2 Gradient                 
  Shashank Vittal Rao    : ES-AILFT, MagRelax                            
  Christoph Reimann      : Effective Core Potentials                     
  Marius Retegan         : Local ZFS, SOC                                
  Christoph Riplinger    : Optimizer, TS searches, QM/MM, DLPNO-CCSD(T), (RO)-DLPNO pert. Triples 
  Michael Roemelt        : Original ROCIS implementation, recursive CI coupling coefficients
  Masaaki Saitow         : Open-shell DLPNO-CCSD energy and density      
  Barbara Sandhoefer     : DKH picture change effects                    
  Yorick L. A. Schmerwitz: GMF and freeze-and-release deltaSCF, NEB S-IDPP initial path                    
  Kantharuban Sivalingam : CASSCF convergence/infrastructure, NEVPT2, NEVPT3, NEVPT4(SD), FIC-MRCI and CEPA variants
  Bernardo de Souza      : ESD, SOC TD-DFT                               
  Georgi L. Stoychev     : AutoAux, RI-MP2 NMR, DLPNO-MP2 response, X2C  
  Van Anh Tran           : RI-MP2 g-tensors                              
  Willem Van den Heuvel  : Paramagnetic NMR                              
  Zikuan Wang            : NOTCH, Electric field optimization            
  Frank Wennmohs         : Technical directorship and infrastructure     
  Hang Xu                : AUTO-CI-Response properties                   
                                                                         
[FACCTs GmbH]                                                            
  Markus Bursch, Nicolas Foglia, Miquel Garcia-Rates, Ingolf Harden, Hagen Neugebauer, Anastasios Papadopoulos, 
  Christoph Riplinger, Bernardo de Souza, Georgi L. Stoychev                                                    
                                                                 
  APM, various basis sets, CI-OPT, improved COSX, DLPNO-Multilevel,           
  DOCKER, DRACO, updates on ESD, Fragmentator, GOAT, IRC, LR-CPCM, L-BFGS, MBIS, meta-GGA TD-DFT gradient, ML-optimized integration grids, 
  MM, NACMEs, nearIR, NEB, NEB-TS, NL-DFT gradient (VV10), 2- and 3-layer-ONIOM, interface openCOSMO-RS, QMMM,   
  Crystal-QMMM, RESP, rigid body optimization, SF, symmetry and pop. for TD-DFT, various functionals, SOLVATOR                                   
                                                                         
[Other institutions]                                                     
  V. Asgeirsson          : NEB                                           
  Christoph Bannwarth    : sTDA-DFT, sTD-DFT, PBEh-3c, B97-3c, D3        
  Giovanni Bistoni       : ETS/NOCV, ADLD/ADEX, COVALED                  
  Martin Brehm           : Molecular dynamics                            
  Ronald Cardenas        : ETS/NOCV                                      
  Martina Colucci        : COVALED                                       
  Sebastian Ehlert       : rSCAN, r2SCAN, r2SCAN-3c, D4, dhf basis sets  
  Marvin Friede          : D4 for Fr, Ra, Ac-Lr                          
  Lars Goerigk           : TD-DFT with DH, B97 family of functionals     
  Stefan Grimme          : VdW corrections, initial TS optimization, DFT functionals, gCP, sTDA/sTD-DF 
  Waldemar Hujo          : DFT-NL                                        
  H. Jonsson             : NEB                                           
  Holger Kruse           : gCP                                           
  Marcel Mueller         : wB97X-3c, vDZP basis set                      
  Hagen Neugebauer       : wr2SCAN, Native XTB                           
  Gianluca Regni         : ADLD/ADEX                                     
  Tobias Risthaus        : pre 6.0 range-separated hybrid DFT and stability analysis
  Lukas Wittmann         : regularized MP2, r2SCAN double-hybrids, wr2SCAN        
                                                                         
We gratefully acknowledge several colleagues who have allowed us to      
interface, adapt or use parts of their codes:                            
  Ed Valeev, F. Pavosevic, A. Kumar             : LibInt (2-el integral package), F12 methods 
  Garnet Chan, S. Sharma, J. Yang, R. Olivares  : DMRG                   
  Ulf Ekstrom                                   : XCFun DFT Library      
  Mihaly Kallay                                 : mrcc  (arbitrary order and MRCC methods)
  Frank Weinhold                                : gennbo (NPA and NBO analysis)           
  Simon Mueller                                 : openCOSMO-RS                            
  Christopher J. Cramer and Donald G. Truhlar   : smd solvation model                     
  S Lehtola, MJT Oliveira, MAL Marques          : LibXC Library                           
  Liviu Ungur et al                             : ANISO software                          


 Your calculation uses the libint2 library for the computation of 2-el integrals
 For citations please refer to: http://libint.valeyev.net

 Your ORCA version has been built with support for libXC version: 7.0.0
 For citations please refer to: https://libxc.gitlab.io

 This ORCA versions uses:
   CBLAS   interface :  Fast vector & matrix operations
   LAPACKE interface :  Fast linear algebra routines
   SCALAPACK package :  Parallel linear algebra routines
   Shared memory     :  Shared parallel matrices
   BLAS/LAPACK       :  OpenBLAS 0.3.29  USE64BITINT DYNAMIC_ARCH NO_AFFINITY SkylakeX SINGLE_THREADED
        Core in use  :  SkylakeX
   Copyright (c) 2011-2014, The OpenBLAS Project


  ***********************************
  * Starting time: Tue Jul 14 09:10:10 2026
  * Host name:     tomasz-Precision-5820-Tower
  * Process ID:    1486116
  * Working dir.:  /data/BIOFILM_INSILICO_SUPPORT/01_qm_orca_xtb/compound_08/outputs
  ***********************************

NOTE: MaxCore=3000 MB was set to SCF,MP2,MDCI,CIPSI,MRCI,RASCI and CIS
      => If you want to overwrite this, your respective input block should be placed after the MaxCore statement


***************************************
The coordinates will be read from file: ../inputs/compound_08_wb97xd3_def2svp_cpcm_water_restart_cycle80.xyz
***************************************


Your calculation utilizes the atom-pairwise dispersion correction
with the zero-damping scheme (D30)


XCFun DFT library Copyright 2009-2010 Ulf Ekstrom and contributors.
See http://admol.org/xcfun for more information.
This is free software; see the source code for copying conditions.
There is ABSOLUTELY NO WARRANTY; not even for MERCHANTABILITY or FITNESS FOR A PARTICULAR PURPOSE.
For details see the documentation.
Scientific users of this library should cite U. Ekstrom, L. Visscher, R. Bast, A. J. Thorvaldsen and K. Ruud;
J.Chem.Theor.Comp. 2010, DOI: 10.1021/ct100117s
XCFun Version 0.99 

Warning: RI is on but no J-basis has been assigned. Assigning Def2/J (nothing to worry about!)
================================================================================

----- Orbital basis set information -----
Your calculation utilizes the basis: def2-SVP
   F. Weigend and R. Ahlrichs, Phys. Chem. Chem. Phys. 7, 3297 (2005).

----- AuxJ basis set information -----
Your calculation utilizes the auxiliary basis: def2/J
   H-Rn: F. Weigend, Phys. Chem. Chem. Phys. 8, 1057 (2006).
   Fr-Lr: K. Eichkorn, F. Weigend, O. Treutler, R. Ahlrichs; Theor. Chem. Acc. 97, 119 (1997).

================================================================================
                                        WARNINGS
                       Please study these warnings very carefully!
================================================================================


WARNING: Geometry Optimization
  ===> : Switching off AutoStart
         For restart on a previous wavefunction, please use MOREAD

================================================================================
                                       INPUT FILE
================================================================================
NAME = ../inputs/compound_08_wb97xd3_def2svp_cpcm_water_restart_cycle80_carthess_opt.inp
|  1> ! wB97X-D3 def2-SVP CPCM(Water) TightSCF TightOpt
|  2> %pal
|  3>   nprocs 8
|  4> end
|  5> %maxcore 3000
|  6> %geom
|  7>   InHess Read
|  8>   InHessName "../inputs/compound_08_wb97xd3_def2svp_cpcm_water_opt.carthess"
|  9>   MaxIter 20
| 10>   MaxStep 0.05
| 11>   Trust -0.05
| 12> end
| 13> * xyzfile 0 1 ../inputs/compound_08_wb97xd3_def2svp_cpcm_water_restart_cycle80.xyz
| 14> 
| 15>                          ****END OF INPUT****
================================================================================

                       *****************************
                       * Geometry Optimization Run *
                       *****************************

Geometry optimization settings:
Update method            Update   .... BFGS
Choice of coordinates    CoordSys .... (2022) Redundant Internals
Initial Hessian          InHess   .... Read
Max. no of cycles        MaxIter  .... 20

Convergence Tolerances:
Energy Change            TolE     ....  1.0000e-06 Eh
Max. Gradient            TolMAXG  ....  1.0000e-04 Eh/bohr
RMS Gradient             TolRMSG  ....  3.0000e-05 Eh/bohr
Max. Displacement        TolMAXD  ....  1.0000e-03 bohr
RMS Displacement         TolRMSD  ....  6.0000e-04 bohr
Strict Convergence                .... False

------------------------------------------------------------------------------
                        ORCA OPTIMIZATION COORDINATE SETUP
------------------------------------------------------------------------------

The optimization will be done in redundant internal coordinates (2022)
Making redundant internal coordinates   ...  (2022 redundants) done
Evaluating the initial hessian          ... (Reading Exact Hessian)...  
InHessName: ../inputs/compound_08_wb97xd3_def2svp_cpcm_water_opt.carthess	Looking for the file ../inputs/compound_08_wb97xd3_def2svp_cpcm_water_restart_cycle80_carthess_opt.carthess containing the Cartesian Hessian
Cartesian Hessian read successfully!
done
done
Evaluating the coordinates              ...  done
Calculating the B-matrix                .... done
Calculating the G-matrix                .... done
The number of degrees of freedom        ....  509

    -----------------------------------------------------------------
                    Redundant Internal Coordinates


    -----------------------------------------------------------------
         Definition                    Initial Value    d2E/dq (diagonal element)
    -----------------------------------------------------------------
      1. B(C   1,S   0)                  1.6845         0.316102   
      2. B(N   2,C   1)                  1.3296         0.536283   
      3. B(N   3,C   1)                  1.3638         0.387079   
      4. B(N   4,N   3)                  1.3554         0.397309   
      5. B(C   5,N   4)                  1.2752         0.682292   
      6. B(C   6,C   5)                  1.5007         0.265683   
      7. B(C   7,C   6)                  1.5453         0.232728   
      8. B(S   8,C   7)                  1.8223         0.199420   
      9. B(C   9,S   8)                  1.8279         0.193932   
     10. B(C  10,C   9)                  1.5373         0.248339   
     11. B(O  11,C  10)                  1.4155         0.357009   
     12. B(C  12,O  11)                  1.3465         0.311811   
     13. B(C  13,C  12)                  1.4968         0.312444   
     14. B(O  14,C  12)                  1.2053         0.372388   
     15. B(C  15,C  10)                  1.5200         0.274361   
     16. B(O  16,C  15)                  1.4214         0.344987   
     17. B(C  17,O  16)                  1.3455         0.418509   
     18. B(C  18,C  17)                  1.4978         0.314183   
     19. B(O  19,C  17)                  1.2057         0.782076   
     20. B(C  20,C  15)                  1.5239         0.269494   
     21. B(O  21,C  20)                  1.4131         0.361777   
     22. B(C  22,O  21)                  1.3949         0.354502   
     23. B(C  23,C  22)                  1.5267         0.247523   
     24. B(O  24,C  23)                  1.4166         0.356703   
     25. B(C  25,O  24)                  1.3532         0.405915   
     26. B(C  26,C  25)                  1.4967         0.319439   
     27. B(O  27,C  25)                  1.2042         0.823041   
     28. B(C  28,C  23)                  1.5211         0.272413   
     29. B(O  29,C  28)                  1.4219         0.345211   
     30. B(C  30,O  29)                  1.3451         0.419654   
     31. B(C  31,C  30)                  1.4973         0.320801   
     32. B(O  32,C  30)                  1.2058         0.855741   
     33. B(C  33,C  28)                  1.5227         0.277706   
     34. B(O  34,C  33)                  1.4225         0.346041   
     35. B(C  35,O  34)                  1.3454         0.419511   
     36. B(C  36,C  35)                  1.4974         0.315877   
     37. B(O  37,C  35)                  1.2057         0.887810   
     38. B(C  38,C  33)                  1.5305         0.259138   
     39. B(C  39,C  38)                  1.5138         0.312474   
     40. B(O  40,C  39)                  1.4233         0.331057   
     41. B(C  41,O  40)                  1.3428         0.420154   
     42. B(C  42,C  41)                  1.4996         0.315135   
     43. B(O  43,C  41)                  1.2058         0.881321   
     44. B(O  44,C  38)                  1.4191         0.298544   
     45. B(O  44,C  22)                  1.3993         0.307133   
     46. B(C  45,C  20)                  1.5310         0.241752   
     47. B(C  46,C  45)                  1.5168         0.303932   
     48. B(O  47,C  46)                  1.4244         0.343196   
     49. B(C  48,O  47)                  1.3427         0.428905   
     50. B(C  49,C  48)                  1.4975         0.320672   
     51. B(O  50,C  48)                  1.2084         0.854127   
     52. B(O  50,O  34)                  3.8927         0.004728   
     53. B(O  51,C   9)                  1.3991         0.305615   
     54. B(O  51,C  45)                  1.4167         0.295146   
     55. B(C  52,C   7)                  1.5452         0.233283   
     56. B(O  53,C  52)                  1.4263         0.211807   
     57. B(C  54,O  53)                  1.3953         0.236516   
     58. B(C  54,C   5)                  1.5314         0.217742   
     59. B(O  55,C  54)                  1.4044         0.262899   
     60. B(C  56,O  55)                  1.4283         0.263186   
     61. B(C  56,C  52)                  1.5520         0.214136   
     62. B(H  57,N   2)                  1.0151         0.472423   
     63. B(H  57,N   4)                  2.2515         0.020622   
     64. B(H  58,N   2)                  1.0113         0.501600   
     65. B(H  59,N   3)                  1.0186         0.460196   
     66. B(H  59,O  55)                  2.3669         0.016091   
     67. B(H  60,C   6)                  1.0970         0.353214   
     68. B(H  61,C   6)                  1.1033         0.337382   
     69. B(H  62,C   7)                  1.1009         0.341630   
     70. B(H  63,C   9)                  1.0981         0.351137   
     71. B(H  64,C  10)                  1.1014         0.343079   
     72. B(H  65,C  13)                  1.1000         0.369384   
     73. B(H  66,C  13)                  1.0951         0.370816   
     74. B(H  67,C  13)                  1.0983         0.367831   
     75. B(H  68,C  15)                  1.1005         0.345929   
     76. B(H  69,C  18)                  1.1002         0.345855   
     77. B(H  70,C  18)                  1.0954         0.359384   
     78. B(H  71,C  18)                  1.0987         0.349736   
     79. B(H  72,C  20)                  1.1045         0.335259   
     80. B(H  73,C  22)                  1.1002         0.345988   
     81. B(H  74,C  23)                  1.0991         0.349345   
     82. B(H  75,C  26)                  1.1007         0.346277   
     83. B(H  76,O  19)                  2.3547         0.006695   
     84. B(H  76,C  26)                  1.0976         0.348517   
     85. B(H  77,C  26)                  1.0954         0.357719   
     86. B(H  78,C  28)                  1.1001         0.347588   
     87. B(H  79,C  31)                  1.0981         0.344687   
     88. B(H  80,C  31)                  1.1001         0.341436   
     89. B(H  81,C  31)                  1.0952         0.359388   
     90. B(H  82,C  33)                  1.0999         0.348189   
     91. B(H  83,C  36)                  1.0983         0.340260   
     92. B(H  84,C  36)                  1.0999         0.338608   
     93. B(H  85,C  36)                  1.0951         0.360855   
     94. B(H  86,C  38)                  1.1042         0.337613   
     95. B(H  87,C  39)                  1.0978         0.353172   
     96. B(H  88,C  39)                  1.0974         0.353331   
     97. B(H  89,C  42)                  1.0999        -0.025216   
     98. B(H  90,C  42)                  1.0954         0.278644   
     99. B(H  91,C  42)                  1.0986         0.069250   
    100. B(H  92,S   0)                 10.1974         0.010197   
    101. B(H  92,C  45)                  1.1062         0.328496   
    102. B(H  93,C  46)                  1.0972         0.353567   
    103. B(H  94,O  43)                  4.3876         0.004624   
    104. B(H  94,C  46)                  1.0945         0.360984   
    105. B(H  95,C  49)                  1.0955         0.359662   
    106. B(H  96,O  53)                  2.4412         0.005061   
    107. B(H  96,C  49)                  1.1015         0.343618   
    108. B(H  97,C  49)                  1.0976         0.355109   
    109. B(H  98,C  52)                  1.0933         0.365431   
    110. B(H  99,C  54)                  1.1004         0.347941   
    111. B(H 100,C  56)                  1.1015         0.341531   
    112. B(H 101,C  56)                  1.0984         0.348948   
    113. A(S   0,C   1,N   3)          119.4927         0.117083   
    114. A(N   2,C   1,N   3)          116.3520         0.082173   
    115. A(S   0,C   1,N   2)          124.1524         0.123548   
    116. A(C   1,N   2,H  58)          119.4235         0.084636   
    117. A(H  57,N   2,H  58)          120.4450         0.070727   
    118. A(C   1,N   2,H  57)          120.0819         0.098742   
    119. A(N   4,N   3,H  59)          121.9615         0.093814   
    120. A(C   1,N   3,H  59)          116.6891         0.097240   
    121. A(C   1,N   3,N   4)          120.1775         0.126053   
    122. A(N   3,N   4,C   5)          118.8347         0.125836   
    123. A(C   6,C   5,C  54)          114.5830         0.062291   
    124. A(N   4,C   5,C  54)          124.6474         0.100648   
    125. A(N   4,C   5,C   6)          120.6555         0.116212   
    126. A(C   5,C   6,C   7)          109.5921         0.060181   
    127. A(H  60,C   6,H  61)          108.0858         0.024810   
    128. A(C   7,C   6,H  61)          108.9900         0.054559   
    129. A(C   7,C   6,H  60)          111.5714         0.043921   
    130. A(C   5,C   6,H  60)          110.5217         0.044105   
    131. A(C   5,C   6,H  61)          107.9872         0.043484   
    132. A(S   8,C   7,H  62)          107.3833         0.046787   
    133. A(C   6,C   7,H  62)          110.2010         0.030483   
    134. A(C  52,C   7,H  62)          109.3312         0.064961   
    135. A(C   6,C   7,C  52)          109.3223         0.045735   
    136. A(S   8,C   7,C  52)          113.3802         0.045651   
    137. A(C   6,C   7,S   8)          107.1775         0.061000   
    138. A(C   7,S   8,C   9)           99.8416         0.288510   
    139. A(S   8,C   9,O  51)          114.5915         0.063785   
    140. A(S   8,C   9,H  63)          107.3013         0.033867   
    141. A(S   8,C   9,C  10)          111.0060         0.083119   
    142. A(C  10,C   9,O  51)          108.8162         0.051312   
    143. A(C  10,C   9,H  63)          109.1983         0.043222   
    144. A(O  51,C   9,H  63)          105.6837         0.039507   
    145. A(O  11,C  10,C  15)          107.0612         0.063062   
    146. A(C  15,C  10,H  64)          109.6507         0.061316   
    147. A(C   9,C  10,H  64)          106.9978         0.031607   
    148. A(C   9,C  10,O  11)          112.7132         0.072502   
    149. A(C   9,C  10,C  15)          110.6917         0.051133   
    150. A(O  11,C  10,H  64)          109.7221         0.051420   
    151. A(C  10,O  11,C  12)          118.0058         0.294342   
    152. A(C  13,C  12,O  14)          126.3883         0.159149   
    153. A(O  11,C  12,O  14)          122.4803         0.195431   
    154. A(O  11,C  12,C  13)          111.1249         0.159247   
    155. A(C  12,C  13,H  65)          108.6304         0.093768   
    156. A(H  65,C  13,H  66)          109.7614         0.050661   
    157. A(H  66,C  13,H  67)          110.7184         0.060716   
    158. A(H  65,C  13,H  67)          107.6707         0.057798   
    159. A(C  12,C  13,H  67)          110.1128         0.097605   
    160. A(C  12,C  13,H  66)          109.8941         0.105623   
    161. A(C  10,C  15,H  68)          109.8687         0.033085   
    162. A(C  10,C  15,O  16)          109.3945         0.074244   
    163. A(O  16,C  15,C  20)          107.6729         0.061656   
    164. A(C  10,C  15,C  20)          111.9811         0.055488   
    165. A(C  20,C  15,H  68)          108.8666         0.060530   
    166. A(O  16,C  15,H  68)          108.9893         0.053891   
    167. A(C  15,O  16,C  17)          118.9495         0.337225   
    168. A(C  18,C  17,O  19)          125.8852         0.163985   
    169. A(O  16,C  17,O  19)          123.1644         0.226906   
    170. A(O  16,C  17,C  18)          110.9458         0.181063   
    171. A(H  69,C  18,H  71)          107.4363         0.058513   
    172. A(C  17,C  18,H  71)          109.7617         0.098215   
    173. A(H  69,C  18,H  70)          109.9728         0.051432   
    174. A(C  17,C  18,H  69)          109.2700         0.096676   
    175. A(H  70,C  18,H  71)          110.3627         0.060487   
    176. A(C  17,C  18,H  70)          109.9931         0.105771   
    177. A(C  45,C  20,H  72)          109.4698         0.064467   
    178. A(C  15,C  20,C  45)          110.3474         0.053904   
    179. A(C  15,C  20,O  21)          108.6075         0.065098   
    180. A(C  15,C  20,H  72)          109.3420         0.034157   
    181. A(O  21,C  20,H  72)          110.7696         0.054962   
    182. A(O  21,C  20,C  45)          108.2929         0.048324   
    183. A(C  20,O  21,C  22)          117.1584         0.204379   
    184. A(C  23,C  22,H  73)          109.9207         0.045809   
    185. A(O  21,C  22,H  73)          110.8764         0.043835   
    186. A(C  23,C  22,O  44)          109.1319         0.055070   
    187. A(O  21,C  22,O  44)          111.7954         0.062343   
    188. A(O  21,C  22,C  23)          109.1600         0.075747   
    189. A(O  44,C  22,H  73)          105.9021         0.039982   
    190. A(C  22,C  23,H  74)          107.6769         0.032926   
    191. A(C  22,C  23,O  24)          110.6516         0.062121   
    192. A(O  24,C  23,H  74)          109.4180         0.053309   
    193. A(C  22,C  23,C  28)          111.1094         0.053088   
    194. A(O  24,C  23,C  28)          108.6005         0.060056   
    195. A(C  28,C  23,H  74)          109.3620         0.065547   
    196. A(C  23,O  24,C  25)          117.9476         0.296705   
    197. A(O  24,C  25,O  27)          123.0450         0.227105   
    198. A(O  24,C  25,C  26)          111.1636         0.170398   
    199. A(C  26,C  25,O  27)          125.7850         0.167452   
    200. A(H  75,C  26,H  76)          107.8396         0.050319   
    201. A(H  76,C  26,H  77)          110.9986         0.060667   
    202. A(H  75,C  26,H  77)          109.4910         0.059164   
    203. A(C  25,C  26,H  77)          109.7553         0.104911   
    204. A(C  25,C  26,H  76)          110.6717         0.109207   
    205. A(C  25,C  26,H  75)          108.0099         0.100587   
    206. A(O  29,C  28,C  33)          111.1131         0.064230   
    207. A(C  23,C  28,O  29)          106.6173         0.076247   
    208. A(C  23,C  28,C  33)          109.6666         0.053705   
    209. A(C  33,C  28,H  78)          109.5992         0.064278   
    210. A(O  29,C  28,H  78)          109.5149         0.055851   
    211. A(C  23,C  28,H  78)          110.2927         0.031053   
    212. A(C  28,O  29,C  30)          119.2476         0.317886   
    213. A(O  29,C  30,C  31)          110.8762         0.177728   
    214. A(C  31,C  30,O  32)          126.0249         0.163559   
    215. A(O  29,C  30,O  32)          123.0857         0.224762   
    216. A(H  80,C  31,H  81)          109.6695         0.058950   
    217. A(H  79,C  31,H  81)          110.8143         0.059717   
    218. A(C  30,C  31,H  81)          109.9445         0.103530   
    219. A(H  79,C  31,H  80)          107.8836         0.049348   
    220. A(C  30,C  31,H  80)          108.2312         0.100005   
    221. A(C  30,C  31,H  79)          110.2349         0.103351   
    222. A(O  34,C  33,C  38)          106.2206         0.062241   
    223. A(C  28,C  33,C  38)          109.7242         0.053694   
    224. A(C  28,C  33,O  34)          110.2054         0.081287   
    225. A(O  34,C  33,H  82)          109.9276         0.050964   
    226. A(C  38,C  33,H  82)          110.9273         0.059688   
    227. A(C  28,C  33,H  82)          109.7823         0.034258   
    228. A(C  33,O  34,C  35)          119.2973         0.317691   
    229. A(C  36,C  35,O  37)          126.0397         0.162239   
    230. A(O  34,C  35,C  36)          110.8950         0.179629   
    231. A(O  34,C  35,O  37)          123.0538         0.224427   
    232. A(H  83,C  36,H  85)          110.6380         0.059588   
    233. A(H  84,C  36,H  85)          109.8603         0.059277   
    234. A(C  35,C  36,H  85)          109.9535         0.103818   
    235. A(H  83,C  36,H  84)          107.7845         0.049382   
    236. A(C  35,C  36,H  84)          108.3772         0.101109   
    237. A(C  35,C  36,H  83)          110.1716         0.102817   
    238. A(C  39,C  38,O  44)          107.4338         0.068766   
    239. A(C  33,C  38,O  44)          110.6511         0.049875   
    240. A(C  33,C  38,C  39)          113.0250         0.087895   
    241. A(C  39,C  38,H  86)          107.7065         0.061877   
    242. A(C  33,C  38,H  86)          107.3212         0.036719   
    243. A(O  44,C  38,H  86)          110.6871         0.053422   
    244. A(C  38,C  39,O  40)          110.1866         0.197854   
    245. A(H  87,C  39,H  88)          109.6513         0.057064   
    246. A(O  40,C  39,H  88)          107.3287         0.129950   
    247. A(C  38,C  39,H  88)          109.7972         0.079315   
    248. A(O  40,C  39,H  87)          110.1649         0.065335   
    249. A(C  38,C  39,H  87)          109.6796         0.081644   
    250. A(C  39,O  40,C  41)          118.9229         0.199012   
    251. A(C  42,C  41,O  43)          125.5348         0.159317   
    252. A(O  40,C  41,O  43)          123.5640         0.208388   
    253. A(O  40,C  41,C  42)          110.9010         0.176870   
    254. A(H  90,C  42,H  91)          110.3977         0.058448   
    255. A(H  89,C  42,H  91)          107.6143         0.058450   
    256. A(C  41,C  42,H  91)          110.0178         0.096673   
    257. A(C  41,C  42,H  90)          109.9573         0.096364   
    258. A(C  41,C  42,H  89)          108.9589         0.094133   
    259. A(H  89,C  42,H  90)          109.8506         0.050847   
    260. A(C  22,O  44,C  38)          115.6840         0.067274   
    261. A(C  20,C  45,C  46)          112.4961         0.080850   
    262. A(O  51,C  45,H  92)          110.1382         0.053080   
    263. A(C  46,C  45,H  92)          109.7060         0.061897   
    264. A(C  20,C  45,H  92)          107.2789         0.036631   
    265. A(C  46,C  45,O  51)          106.2078         0.067381   
    266. A(C  20,C  45,O  51)          111.0325         0.050327   
    267. A(C  45,C  46,O  47)          110.9844         0.113644   
    268. A(H  93,C  46,H  94)          109.3078         0.055607   
    269. A(O  47,C  46,H  94)          110.2276         0.125175   
    270. A(C  45,C  46,H  94)          110.7095         0.074321   
    271. A(O  47,C  46,H  93)          106.2165         0.057421   
    272. A(C  45,C  46,H  93)          109.2787         0.078227   
    273. A(C  46,O  47,C  48)          117.4866         0.334530   
    274. A(C  49,C  48,O  50)          125.5569         0.167104   
    275. A(O  47,C  48,O  50)          122.7343         0.229368   
    276. A(O  47,C  48,C  49)          111.6894         0.185799   
    277. A(H  96,C  49,H  97)          108.0551         0.059429   
    278. A(C  48,C  49,H  97)          110.6522         0.100180   
    279. A(H  95,C  49,H  96)          109.2022         0.051463   
    280. A(C  48,C  49,H  96)          108.1310         0.103760   
    281. A(C  48,C  49,H  95)          109.8160         0.106899   
    282. A(H  95,C  49,H  97)          110.9123         0.061102   
    283. A(C   9,O  51,C  45)          116.9406         0.067531   
    284. A(C  56,C  52,H  98)          111.0745         0.050836   
    285. A(O  53,C  52,H  98)          108.8490         0.040206   
    286. A(C   7,C  52,H  98)          111.6386         0.036482   
    287. A(O  53,C  52,C  56)          101.9874         0.042377   
    288. A(C   7,C  52,C  56)          114.2788         0.057428   
    289. A(C   7,C  52,O  53)          108.4323         0.037133   
    290. A(C  52,O  53,C  54)          101.5009         0.053402   
    291. A(O  55,C  54,H  99)          110.1403         0.044238   
    292. A(O  53,C  54,H  99)          110.3158         0.042290   
    293. A(C   5,C  54,H  99)          113.0482         0.038089   
    294. A(O  53,C  54,O  55)          105.1315         0.047834   
    295. A(C   5,C  54,O  55)          109.3187         0.054810   
    296. A(C   5,C  54,O  53)          108.5712         0.048289   
    297. A(C  54,O  55,C  56)          104.5036         0.079420   
    298. A(H 100,C  56,H 101)          109.2647         0.056067   
    299. A(O  55,C  56,H 101)          108.5970         0.133434   
    300. A(C  52,C  56,H 101)          111.3604         0.059097   
    301. A(O  55,C  56,H 100)          110.9693         0.038426   
    302. A(C  52,C  56,H 100)          112.5605         0.057061   
    303. A(C  52,C  56,O  55)          103.9426         0.078059   
    304. D(H  58,N   2,C   1,N   3)   -179.5939         0.016032   
    305. D(H  58,N   2,C   1,S   0)      1.0248         0.010854   
    306. D(H  57,N   2,C   1,S   0)    178.4730         0.014602   
    307. D(H  57,N   2,C   1,N   3)     -2.1457         0.013393   
    308. D(H  59,N   3,C   1,N   2)    173.4965         0.013024   
    309. D(H  59,N   3,C   1,S   0)     -7.0917         0.010448   
    310. D(N   4,N   3,C   1,S   0)   -174.9624         0.013459   
    311. D(N   4,N   3,C   1,N   2)      5.6258         0.012685   
    312. D(C   5,N   4,N   3,H  59)     15.2681         0.011427   
    313. D(C   5,N   4,N   3,C   1)   -177.5159         0.012123   
    314. D(C   6,C   5,N   4,N   3)   -176.1138         0.046033   
    315. D(C  54,C   5,N   4,N   3)     -0.2123         0.041187   
    316. D(C   7,C   6,C   5,N   4)    129.7353         0.013799   
    317. D(C   7,C   6,C   5,C  54)    -46.5575         0.015071   
    318. D(H  60,C   6,C   5,N   4)      6.3732         0.015573   
    319. D(H  60,C   6,C   5,C  54)   -169.9196         0.017779   
    320. D(H  61,C   6,C   5,N   4)   -111.6637         0.028025   
    321. D(C  52,C   7,C   6,H  61)    -85.4865         0.020248   
    322. D(S   8,C   7,C   6,H  61)     37.7804         0.020504   
    323. D(C  52,C   7,C   6,C   5)     32.4916         0.015344   
    324. D(S   8,C   7,C   6,H  60)    -81.5002         0.020281   
    325. D(S   8,C   7,C   6,C   5)    155.7585         0.023703   
    326. D(C  52,C   7,C   6,H  60)    155.2329         0.019084   
    327. D(C   9,S   8,C   7,C   6)    162.8242         0.026553   
    328. D(C   9,S   8,C   7,H  62)     44.4318         0.024687   
    329. D(C   9,S   8,C   7,C  52)    -76.4485         0.028797   
    330. D(O  51,C   9,S   8,C   7)     68.9404         0.032902   
    331. D(H  63,C   9,S   8,C   7)    -48.0560         0.032596   
    332. D(C  10,C   9,S   8,C   7)   -167.3013         0.038988   
    333. D(O  11,C  10,C   9,O  51)    174.5367         0.026604   
    334. D(O  11,C  10,C   9,S   8)     47.5393         0.025342   
    335. D(O  11,C  10,C   9,H  63)    -70.5622         0.021405   
    336. D(C  15,C  10,C   9,O  51)     54.6631         0.022877   
    337. D(C  15,C  10,C   9,H  63)    169.5643         0.022350   
    338. D(C  15,C  10,C   9,S   8)    -72.3343         0.028702   
    339. D(C  12,O  11,C  10,H  64)    -42.0620         0.024173   
    340. D(C  12,O  11,C  10,C  15)   -160.9897         0.017310   
    341. D(C  12,O  11,C  10,C   9)     77.0629         0.020325   
    342. D(O  14,C  12,O  11,C  10)     -0.2931         0.015076   
    343. D(C  13,C  12,O  11,C  10)   -179.4206         0.014987   
    344. D(H  67,C  13,C  12,O  11)    -50.5545         0.021723   
    345. D(H  66,C  13,C  12,O  14)      8.1391         0.015090   
    346. D(H  66,C  13,C  12,O  11)   -172.7752         0.016801   
    347. D(H  65,C  13,C  12,O  14)   -111.9565         0.010277   
    348. D(H  65,C  13,C  12,O  11)     67.1292         0.017397   
    349. D(C  20,C  15,C  10,H  64)     65.7140         0.024995   
    350. D(C  20,C  15,C  10,C   9)    -52.1056         0.019470   
    351. D(C  20,C  15,C  10,O  11)   -175.3121         0.029881   
    352. D(O  16,C  15,C  10,O  11)     65.4013         0.029163   
    353. D(O  16,C  15,C  10,C   9)   -171.3922         0.027130   
    354. D(O  16,C  15,C  10,H  64)    -53.5726         0.023926   
    355. D(C  17,O  16,C  15,H  68)     15.5997         0.025452   
    356. D(C  17,O  16,C  15,C  20)    133.5404         0.023806   
    357. D(C  17,O  16,C  15,C  10)   -104.5457         0.026107   
    358. D(O  19,C  17,O  16,C  15)      1.3546         0.025956   
    359. D(C  18,C  17,O  16,C  15)   -177.9157         0.026467   
    360. D(H  71,C  18,C  17,O  16)    -54.1414         0.022916   
    361. D(H  70,C  18,C  17,O  19)      5.0007         0.022298   
    362. D(H  70,C  18,C  17,O  16)   -175.7532         0.019318   
    363. D(H  69,C  18,C  17,O  19)   -115.8133         0.018725   
    364. D(H  69,C  18,C  17,O  16)     63.4328         0.019643   
    365. D(O  21,C  20,C  15,O  16)    -71.6171         0.034243   
    366. D(O  21,C  20,C  15,C  10)    168.0881         0.024816   
    367. D(C  45,C  20,C  15,H  68)    -72.1577         0.025019   
    368. D(C  45,C  20,C  15,O  16)    169.8223         0.033704   
    369. D(C  45,C  20,C  15,C  10)     49.5275         0.018183   
    370. D(O  21,C  20,C  15,H  68)     46.4029         0.024616   
    371. D(C  22,O  21,C  20,H  72)    -18.8823         0.031196   
    372. D(C  22,O  21,C  20,C  45)   -138.9369         0.032050   
    373. D(C  22,O  21,C  20,C  15)    101.2139         0.036462   
    374. D(H  73,C  22,O  21,C  20)    -29.9630         0.031642   
    375. D(O  44,C  22,O  21,C  20)     87.9630         0.037636   
    376. D(C  23,C  22,O  21,C  20)   -151.1988         0.036025   
    377. D(C  28,C  23,C  22,H  73)    171.5314         0.023472   
    378. D(C  28,C  23,C  22,O  44)     55.7976         0.024926   
    379. D(C  28,C  23,C  22,O  21)    -66.6536         0.031510   
    380. D(O  24,C  23,C  22,H  73)    -67.7450         0.022714   
    381. D(O  24,C  23,C  22,O  44)    176.5212         0.028895   
    382. D(O  24,C  23,C  22,O  21)     54.0701         0.032127   
    383. D(C  25,O  24,C  23,H  74)     17.2941         0.024248   
    384. D(C  25,O  24,C  23,C  28)   -102.0162         0.020101   
    385. D(C  25,O  24,C  23,C  22)    135.7795         0.018172   
    386. D(O  27,C  25,O  24,C  23)    -12.4772         0.022043   
    387. D(C  26,C  25,O  24,C  23)    166.6454         0.028304   
    388. D(H  77,C  26,C  25,O  24)    167.6475         0.024520   
    389. D(H  76,C  26,C  25,O  27)   -136.1103         0.020824   
    390. D(H  76,C  26,C  25,O  24)     44.7963         0.021523   
    391. D(H  75,C  26,C  25,O  27)    106.0520         0.020192   
    392. D(H  75,C  26,C  25,O  24)    -73.0414         0.019329   
    393. D(C  33,C  28,C  23,H  74)     64.1996         0.025915   
    394. D(C  33,C  28,C  23,O  24)   -176.4550         0.029002   
    395. D(C  33,C  28,C  23,C  22)    -54.5294         0.019917   
    396. D(O  29,C  28,C  23,H  74)    -56.1887         0.024945   
    397. D(O  29,C  28,C  23,O  24)     63.1568         0.030129   
    398. D(O  29,C  28,C  23,C  22)   -174.9177         0.029500   
    399. D(C  30,O  29,C  28,H  78)    -23.3821         0.022074   
    400. D(C  30,O  29,C  28,C  33)     97.8389         0.023311   
    401. D(C  30,O  29,C  28,C  23)   -142.7070         0.020316   
    402. D(O  32,C  30,O  29,C  28)     -1.1699         0.019215   
    403. D(C  31,C  30,O  29,C  28)   -179.9195         0.021060   
    404. D(H  81,C  31,C  30,O  29)   -170.8986         0.023639   
    405. D(H  80,C  31,C  30,O  32)   -109.3732         0.019483   
    406. D(H  79,C  31,C  30,O  32)    132.8520         0.019249   
    407. D(H  79,C  31,C  30,O  29)    -48.4435         0.020517   
    408. D(H  80,C  31,C  30,O  29)     69.3314         0.019321   
    409. D(C  38,C  33,C  28,H  78)    -68.0998         0.025321   
    410. D(C  38,C  33,C  28,O  29)    170.7286         0.031865   
    411. D(C  38,C  33,C  28,C  23)     53.1123         0.019029   
    412. D(O  34,C  33,C  28,H  78)     48.5257         0.023889   
    413. D(O  34,C  33,C  28,O  29)    -72.6458         0.032612   
    414. D(O  34,C  33,C  28,C  23)    169.7378         0.028748   
    415. D(C  35,O  34,C  33,H  82)    -26.1926         0.023338   
    416. D(C  35,O  34,C  33,C  38)   -146.2688         0.023250   
    417. D(C  35,O  34,C  33,C  28)     94.9412         0.028738   
    418. D(O  37,C  35,O  34,C  33)      0.9648         0.020058   
    419. D(C  36,C  35,O  34,C  33)   -177.8677         0.019620   
    420. D(H  85,C  36,C  35,O  34)   -174.3194         0.024199   
    421. D(H  84,C  36,C  35,O  37)   -113.2058         0.019273   
    422. D(H  84,C  36,C  35,O  34)     65.5841         0.019825   
    423. D(H  83,C  36,C  35,O  37)    129.0888         0.019127   
    424. D(H  83,C  36,C  35,O  34)    -52.1214         0.020124   
    425. D(O  44,C  38,C  33,H  82)     67.2372         0.027033   
    426. D(O  44,C  38,C  33,O  34)   -173.3379         0.036776   
    427. D(O  44,C  38,C  33,C  28)    -54.2319         0.023467   
    428. D(C  39,C  38,C  33,H  82)    -53.2979         0.022824   
    429. D(C  39,C  38,C  33,O  34)     66.1269         0.031995   
    430. D(C  39,C  38,C  33,C  28)   -174.7671         0.028095   
    431. D(H  87,C  39,C  38,H  86)    -61.8466         0.022796   
    432. D(H  87,C  39,C  38,O  44)     57.4247         0.018651   
    433. D(H  87,C  39,C  38,C  33)    179.7763         0.017929   
    434. D(O  40,C  39,C  38,H  86)    176.7163         0.025381   
    435. D(O  40,C  39,C  38,O  44)    -64.0124         0.020965   
    436. D(O  40,C  39,C  38,C  33)     58.3392         0.020367   
    437. D(C  41,O  40,C  39,H  88)   -138.0110         0.028283   
    438. D(C  41,O  40,C  39,H  87)    -18.6790         0.022134   
    439. D(C  41,O  40,C  39,C  38)    102.4688         0.025317   
    440. D(O  43,C  41,O  40,C  39)      6.4688         0.018784   
    441. D(C  42,C  41,O  40,C  39)   -173.6669         0.019626   
    442. D(H  91,C  42,C  41,O  40)    -51.7570         0.022176   
    443. D(H  90,C  42,C  41,O  43)      6.3052         0.022176   
    444. D(H  90,C  42,C  41,O  40)   -173.5558         0.020267   
    445. D(H  89,C  42,C  41,O  43)   -114.1410         0.017899   
    446. D(H  89,C  42,C  41,O  40)     65.9980         0.020193   
    447. D(C  22,O  44,C  38,H  86)    -59.3470         0.035467   
    448. D(C  22,O  44,C  38,C  39)   -176.6913         0.034825   
    449. D(C  22,O  44,C  38,C  33)     59.4966         0.022706   
    450. D(C  38,O  44,C  22,H  73)   -177.6265         0.028992   
    451. D(C  38,O  44,C  22,C  23)    -59.3438         0.021930   
    452. D(C  38,O  44,C  22,O  21)     61.5107         0.041386   
    453. D(O  51,C  45,C  20,H  72)     70.1099         0.027080   
    454. D(O  51,C  45,C  20,O  21)   -169.0258         0.033189   
    455. D(O  51,C  45,C  20,C  15)    -50.2731         0.022427   
    456. D(C  46,C  45,C  20,H  72)    -48.7661         0.025163   
    457. D(C  46,C  45,C  20,O  21)     72.0982         0.035476   
    458. D(C  46,C  45,C  20,C  15)   -169.1491         0.030013   
    459. D(H  93,C  46,C  45,H  92)   -158.4691         0.020943   
    460. D(H  93,C  46,C  45,O  51)    -39.4599         0.020624   
    461. D(H  93,C  46,C  45,C  20)     82.2024         0.018341   
    462. D(O  47,C  46,C  45,H  92)    -41.6592         0.025759   
    463. D(O  47,C  46,C  45,O  51)     77.3500         0.027791   
    464. D(O  47,C  46,C  45,C  20)   -160.9877         0.026680   
    465. D(C  48,O  47,C  46,H  94)    -37.0555         0.023907   
    466. D(C  48,O  47,C  46,H  93)   -155.3590         0.025592   
    467. D(C  48,O  47,C  46,C  45)     85.9674         0.028005   
    468. D(O  50,C  48,O  47,C  46)      3.0600         0.025816   
    469. D(C  49,C  48,O  47,C  46)   -175.4181         0.031698   
    470. D(H  97,C  49,C  48,O  47)    -42.7680         0.023764   
    471. D(H  96,C  49,C  48,O  50)   -103.0339         0.019214   
    472. D(H  96,C  49,C  48,O  47)     75.3924         0.021302   
    473. D(H  95,C  49,C  48,O  50)     16.0351         0.022182   
    474. D(H  95,C  49,C  48,O  47)   -165.5386         0.019987   
    475. D(C   9,O  51,C  45,H  92)    -60.0216         0.034714   
    476. D(C   9,O  51,C  45,C  46)   -178.7466         0.034094   
    477. D(C   9,O  51,C  45,C  20)     58.6605         0.023069   
    478. D(C  45,O  51,C   9,H  63)   -177.1919         0.026095   
    479. D(C  45,O  51,C   9,C  10)    -60.0296         0.020120   
    480. D(C  45,O  51,C   9,S   8)     64.8898         0.039303   
    481. D(C  56,C  52,C   7,H  62)     36.0427         0.022577   
    482. D(C  56,C  52,C   7,S   8)    155.8179         0.027552   
    483. D(C  56,C  52,C   7,C   6)    -84.6740         0.024488   
    484. D(O  53,C  52,C   7,H  62)    149.0285         0.024913   
    485. D(O  53,C  52,C   7,S   8)    -91.1963         0.027811   
    486. D(O  53,C  52,C   7,C   6)     28.3118         0.023626   
    487. D(C  54,O  53,C  52,H  98)    155.5817         0.034711   
    488. D(C  54,O  53,C  52,C  56)     38.1357         0.023157   
    489. D(C  54,O  53,C  52,C   7)    -82.7842         0.032667   
    490. D(H  99,C  54,O  53,C  52)   -168.2022         0.028581   
    491. D(O  55,C  54,O  53,C  52)    -49.4867         0.027147   
    492. D(C   5,C  54,O  53,C  52)     67.4098         0.029472   
    493. D(H  99,C  54,C   5,N   4)     57.2269         0.026979   
    494. D(O  55,C  54,C   5,C   6)    110.2798         0.032672   
    495. D(O  55,C  54,C   5,N   4)    -65.8434         0.027417   
    496. D(O  53,C  54,C   5,C   6)     -3.8990         0.022963   
    497. D(O  53,C  54,C   5,N   4)    179.9778         0.018804   
    498. D(C  56,O  55,C  54,H  99)    158.0746         0.027124   
    499. D(C  56,O  55,C  54,O  53)     39.2414         0.023377   
    500. D(C  56,O  55,C  54,C   5)    -77.1437         0.029166   
    501. D(H 101,C  56,O  55,C  54)   -132.1937         0.029943   
    502. D(H 100,C  56,O  55,C  54)    107.6901         0.033320   
    503. D(C  52,C  56,O  55,C  54)    -13.5409         0.013037   
    504. D(H 100,C  56,C  52,H  98)    108.7843         0.022112   
    505. D(H 100,C  56,C  52,O  53)   -135.3812         0.019117   
    506. D(H 100,C  56,C  52,C   7)    -18.6139         0.022283   
    507. D(O  55,C  56,C  52,H  98)   -131.0549         0.025096   
    508. D(O  55,C  56,C  52,O  53)    -15.2203         0.014791   
    509. D(O  55,C  56,C  52,C   7)    101.5470         0.023868   
    -----------------------------------------------------------------

Number of atoms                         .... 102
Number of degrees of freedom            .... 509


         *************************************************************
         *                GEOMETRY OPTIMIZATION CYCLE   1            *
         *************************************************************
---------------------------------
CARTESIAN COORDINATES (ANGSTROEM)
---------------------------------
  S     10.550457    3.549783    0.815926
  C      9.687488    2.380553   -0.036053
  N     10.242200    1.494119   -0.857281
  N      8.331112    2.320284    0.092968
  N      7.633538    1.323456   -0.504289
  C      6.362030    1.318653   -0.406884
  C      5.555164    0.189255   -0.977465
  C      4.571168   -0.336471    0.091775
  S      3.188992   -1.129508   -0.792315
  C      2.468125   -2.110827    0.570937
  C      1.456172   -3.137023    0.036017
  O      1.952432   -3.869051   -1.069138
  C      2.831710   -4.859847   -0.827808
  C      3.264173   -5.519052   -2.100102
  O      3.207675   -5.135080    0.283811
  C      0.182190   -2.446303   -0.422415
  O     -0.803640   -3.425214   -0.722647
  C     -1.078959   -3.698434   -2.011012
  C     -2.174141   -4.714264   -2.120728
  O     -0.511562   -3.168494   -2.933449
  C     -0.388410   -1.529794    0.653037
  O     -1.393954   -0.724553    0.072204
  C     -2.718698   -1.097667    0.299300
  C     -3.576141   -0.644211   -0.879699
  O     -3.046690   -1.132575   -2.099565
  C     -3.909551   -1.655969   -3.001021
  C     -3.257914   -1.825003   -4.337721
  O     -5.053134   -1.924608   -2.736127
  C     -3.646376    0.873463   -0.954312
  O     -4.555810    1.187465   -2.001285
  C     -4.305791    2.245147   -2.793780
  C     -5.378786    2.403934   -3.825993
  O     -3.348489    2.964002   -2.649585
  C     -4.130197    1.430201    0.377849
  O     -3.976570    2.844094    0.404327
  C     -5.018354    3.625929    0.067537
  C     -4.635872    5.073030    0.110365
  O     -6.096771    3.186192   -0.244331
  C     -3.260065    0.884293    1.512438
  C     -3.753234    1.290454    2.884772
  O     -5.088770    0.838766    3.080294
  C     -5.301843   -0.250551    3.836044
  C     -6.745469   -0.654650    3.797165
  O     -4.433592   -0.811392    4.456945
  O     -3.222740   -0.533831    1.476592
  C      0.704861   -0.610485    1.203943
  C      0.263512    0.134645    2.449165
  O      1.090175    1.270645    2.683717
  C      0.764310    2.413720    2.059265
  C      1.776561    3.488660    2.308782
  O     -0.217725    2.521133    1.363427
  O      1.854206   -1.351899    1.573294
  C      4.128257    0.833746    0.998460
  O      4.190993    2.040337    0.240400
  C      5.542868    2.367918    0.350225
  O      5.830871    2.281009    1.722059
  C      5.100956    1.137564    2.169060
  H      9.664975    0.800626   -1.322430
  H     11.245628    1.493231   -0.982875
  H      7.910988    2.926475    0.795514
  H      6.214253   -0.606814   -1.345213
  H      4.979617    0.580299   -1.833738
  H      5.055737   -1.110549    0.706502
  H      3.293849   -2.641044    1.063771
  H      1.226740   -3.825164    0.864846
  H      3.852606   -4.798336   -2.686922
  H      3.875166   -6.399459   -1.874653
  H      2.386307   -5.798135   -2.698200
  H      0.383533   -1.851875   -1.326403
  H     -3.099030   -4.298613   -1.693742
  H     -2.333794   -4.980894   -3.171079
  H     -1.913190   -5.606575   -1.535187
  H     -0.802444   -2.142238    1.473634
  H     -2.802791   -2.187259    0.426827
  H     -4.587328   -1.048986   -0.732166
  H     -3.139629   -0.827309   -4.787248
  H     -2.258439   -2.265304   -4.228632
  H     -3.891159   -2.443756   -4.982734
  H     -2.656014    1.290076   -1.190536
  H     -5.577975    1.442521   -4.317770
  H     -6.301362    2.720799   -3.317460
  H     -5.082863    3.161998   -4.558895
  H     -5.186653    1.164984    0.530503
  H     -4.177945    5.315234    1.078829
  H     -3.884599    5.256414   -0.671703
  H     -5.517507    5.698001   -0.066797
  H     -2.247423    1.304585    1.381517
  H     -3.094333    0.867865    3.654411
  H     -3.762857    2.384655    2.967440
  H     -6.997487   -0.982355    2.777939
  H     -6.924406   -1.471000    4.505277
  H     -7.383697    0.206807    4.036733
  H      0.958407    0.113050    0.406503
  H      0.383737   -0.517528    3.323289
  H     -0.784371    0.439729    2.366656
  H      1.366851    4.460571    2.012673
  H      2.666775    3.269576    1.698255
  H      2.080838    3.496618    3.363304
  H      3.106146    0.697661    1.361869
  H      5.718037    3.393041   -0.009514
  H      5.778926    0.296526    2.384289
  H      4.554927    1.406052    3.083524

----------------------------
CARTESIAN COORDINATES (A.U.)
----------------------------
  NO LB      ZA    FRAG     MASS         X           Y           Z
   0 S    16.0000    0    32.060   19.937474    6.708118    1.541877
   1 C     6.0000    0    12.011   18.306700    4.498593   -0.068130
   2 N     7.0000    0    14.007   19.354953    2.823476   -1.620026
   3 N     7.0000    0    14.007   15.743521    4.384701    0.175683
   4 N     7.0000    0    14.007   14.425296    2.500970   -0.952969
   5 C     6.0000    0    12.011   12.022495    2.491893   -0.768899
   6 C     6.0000    0    12.011   10.497739    0.357640   -1.847141
   7 C     6.0000    0    12.011    8.638256   -0.635837    0.173430
   8 S    16.0000    0    32.060    6.026321   -2.134460   -1.497259
   9 C     6.0000    0    12.011    4.664081   -3.988886    1.078915
  10 C     6.0000    0    12.011    2.751766   -5.928114    0.068063
  11 O     8.0000    0    15.999    3.689562   -7.311447   -2.020378
  12 C     6.0000    0    12.011    5.351156   -9.183781   -1.564330
  13 C     6.0000    0    12.011    6.168394  -10.429497   -3.968617
  14 O     8.0000    0    15.999    6.061627   -9.703895    0.536324
  15 C     6.0000    0    12.011    0.344290   -4.622842   -0.798249
  16 O     8.0000    0    15.999   -1.518659   -6.472716   -1.365605
  17 C     6.0000    0    12.011   -2.038937   -6.989028   -3.800262
  18 C     6.0000    0    12.011   -4.108530   -8.908667   -4.007595
  19 O     8.0000    0    15.999   -0.966713   -5.987585   -5.543416
  20 C     6.0000    0    12.011   -0.733989   -2.890892    1.234062
  21 O     8.0000    0    15.999   -2.634190   -1.369206    0.136446
  22 C     6.0000    0    12.011   -5.137594   -2.074291    0.565595
  23 C     6.0000    0    12.011   -6.757927   -1.217383   -1.662390
  24 O     8.0000    0    15.999   -5.757410   -2.140256   -3.967603
  25 C     6.0000    0    12.011   -7.387980   -3.129329   -5.671108
  26 C     6.0000    0    12.011   -6.156566   -3.448756   -8.197105
  27 O     8.0000    0    15.999   -9.549040   -3.636982   -5.170531
  28 C     6.0000    0    12.011   -6.890651    1.650606   -1.803388
  29 O     8.0000    0    15.999   -8.609233    2.243984   -3.781881
  30 C     6.0000    0    12.011   -8.136766    4.242712   -5.279479
  31 C     6.0000    0    12.011  -10.164432    4.542777   -7.230080
  32 O     8.0000    0    15.999   -6.327727    5.601152   -5.006989
  33 C     6.0000    0    12.011   -7.804941    2.702689    0.714031
  34 O     8.0000    0    15.999   -7.514628    5.374559    0.764068
  35 C     6.0000    0    12.011   -9.483315    6.852013    0.127627
  36 C     6.0000    0    12.011   -8.760528    9.586638    0.208559
  37 O     8.0000    0    15.999  -11.521227    6.021031   -0.461720
  38 C     6.0000    0    12.011   -6.160630    1.671071    2.858094
  39 C     6.0000    0    12.011   -7.092585    2.438605    5.451429
  40 O     8.0000    0    15.999   -9.616382    1.585039    5.820911
  41 C     6.0000    0    12.011  -10.019032   -0.473472    7.249073
  42 C     6.0000    0    12.011  -12.747090   -1.237108    7.175601
  43 O     8.0000    0    15.999   -8.378275   -1.533308    8.422405
  44 O     8.0000    0    15.999   -6.090097   -1.008794    2.790354
  45 C     6.0000    0    12.011    1.331994   -1.153650    2.275123
  46 C     6.0000    0    12.011    0.497966    0.254442    4.628251
  47 O     8.0000    0    15.999    2.060132    2.401172    5.071490
  48 C     6.0000    0    12.011    1.444336    4.561270    3.891446
  49 C     6.0000    0    12.011    3.357214    6.592612    4.362966
  50 O     8.0000    0    15.999   -0.411440    4.764252    2.576503
  51 O     8.0000    0    15.999    3.503942   -2.554719    2.973094
  52 C     6.0000    0    12.011    7.801275    1.575552    1.886815
  53 O     8.0000    0    15.999    7.919829    3.855678    0.454291
  54 C     6.0000    0    12.011   10.474503    4.474717    0.661829
  55 O     8.0000    0    15.999   11.018749    4.310482    3.254219
  56 C     6.0000    0    12.011    9.639410    2.149685    4.098930
  57 H     1.0000    0     1.008   18.264156    1.512964   -2.499031
  58 H     1.0000    0     1.008   21.251157    2.821798   -1.857365
  59 H     1.0000    0     1.008   14.949600    5.530236    1.503304
  60 H     1.0000    0     1.008   11.743236   -1.146713   -2.542085
  61 H     1.0000    0     1.008    9.410112    1.096606   -3.465263
  62 H     1.0000    0     1.008    9.553958   -2.098634    1.335095
  63 H     1.0000    0     1.008    6.224472   -4.990849    2.010236
  64 H     1.0000    0     1.008    2.318202   -7.228512    1.634322
  65 H     1.0000    0     1.008    7.280371   -9.067541   -5.077548
  66 H     1.0000    0     1.008    7.323003  -12.093225   -3.542580
  67 H     1.0000    0     1.008    4.509467  -10.956887   -5.098859
  68 H     1.0000    0     1.008    0.724773   -3.499536   -2.506537
  69 H     1.0000    0     1.008   -5.856319   -8.123201   -3.200709
  70 H     1.0000    0     1.008   -4.410231   -9.412525   -5.992471
  71 H     1.0000    0     1.008   -3.615405  -10.594891   -2.901083
  72 H     1.0000    0     1.008   -1.516400   -4.048243    2.784765
  73 H     1.0000    0     1.008   -5.296508   -4.133321    0.806587
  74 H     1.0000    0     1.008   -8.668793   -1.982296   -1.383593
  75 H     1.0000    0     1.008   -5.933038   -1.563388   -9.046588
  76 H     1.0000    0     1.008   -4.267831   -4.280804   -7.990956
  77 H     1.0000    0     1.008   -7.353224   -4.618030   -9.416003
  78 H     1.0000    0     1.008   -5.019139    2.437891   -2.249788
  79 H     1.0000    0     1.008  -10.540845    2.725970   -8.159403
  80 H     1.0000    0     1.008  -11.907849    5.141564   -6.269091
  81 H     1.0000    0     1.008   -9.605219    5.975309   -8.615063
  82 H     1.0000    0     1.008   -9.801354    2.201500    1.002505
  83 H     1.0000    0     1.008   -7.895171   10.044336    2.038692
  84 H     1.0000    0     1.008   -7.340827    9.933182   -1.269334
  85 H     1.0000    0     1.008  -10.426576   10.767662   -0.126228
  86 H     1.0000    0     1.008   -4.247014    2.465308    2.610689
  87 H     1.0000    0     1.008   -5.847443    1.640028    6.905835
  88 H     1.0000    0     1.008   -7.110770    4.506345    5.607650
  89 H     1.0000    0     1.008  -13.223335   -1.856381    5.249544
  90 H     1.0000    0     1.008  -13.085231   -2.779788    8.513739
  91 H     1.0000    0     1.008  -13.953165    0.390809    7.628320
  92 H     1.0000    0     1.008    1.811126    0.213633    0.768179
  93 H     1.0000    0     1.008    0.725157   -0.977986    6.280106
  94 H     1.0000    0     1.008   -1.482247    0.830967    4.472331
  95 H     1.0000    0     1.008    2.582974    8.429257    3.803400
  96 H     1.0000    0     1.008    5.039475    6.178602    3.209237
  97 H     1.0000    0     1.008    3.932214    6.607650    6.355724
  98 H     1.0000    0     1.008    5.869765    1.318389    2.573560
  99 H     1.0000    0     1.008   10.805524    6.411919   -0.017979
 100 H     1.0000    0     1.008   10.920587    0.560354    4.505653
 101 H     1.0000    0     1.008    8.607565    2.657054    5.827016

--------------------------------
INTERNAL COORDINATES (ANGSTROEM)
--------------------------------
 S      0   0   0     0.000000000000     0.00000000     0.00000000
 C      1   0   0     1.684542429782     0.00000000     0.00000000
 N      2   1   0     1.329617964070   124.15244275     0.00000000
 N      2   1   3     1.363830766948   119.49271885   180.63694498
 N      4   2   1     1.355356448738   120.17746691   185.03757243
 C      5   4   2     1.275242068472   118.83468222   182.48411611
 C      6   5   4     1.500711580960   120.65550944   183.88623379
 C      7   6   5     1.545286134057   109.59205115   129.73525922
 S      8   7   6     1.822343621566   107.17753237   155.75847332
 C      9   8   7     1.827865960382    99.84156787   162.82421497
 C     10   9   8     1.537291885487   111.00604886   192.69867164
 O     11  10   9     1.415453306574   112.71320895    47.53926778
 C     12  11  10     1.346494291805   118.00575459    77.06293659
 C     13  12  11     1.496765843487   111.12490781   180.57943621
 O     13  12  11     1.205320502566   122.48031053   359.70693621
 C     11  10   9     1.519961275514   110.69170302   287.66569496
 O     16  11  10     1.421361007198   109.39454363   188.60784655
 C     17  16  11     1.345486946823   118.94946436   255.45432013
 C     18  17  16     1.497788119680   110.94584455   182.08429307
 O     18  17  16     1.205680961143   123.16444176     1.35462206
 C     16  11  10     1.523867002857   111.98111121   307.89443383
 O     21  16  11     1.413116664705   108.60753435   168.08810837
 C     22  21  16     1.394895954543   117.15838516   101.21394109
 C     23  22  21     1.526718886695   109.16002552   208.80124308
 O     24  23  22     1.416647742258   110.65162611    54.07005231
 C     25  24  23     1.353178993283   117.94764945   135.77948068
 C     26  25  24     1.496652958909   111.16359349   166.64544782
 O     26  25  24     1.204208717069   123.04498265   347.52280314
 C     24  23  22     1.521129622054   111.10941006   293.34644619
 O     29  24  23     1.421907524316   106.61733826   185.08228964
 C     30  29  24     1.345082705371   119.24762388   217.29300603
 C     31  30  29     1.497329300537   110.87623736   180.08051638
 O     31  30  29     1.205807842579   123.08566808   358.83009794
 C     29  24  23     1.522725504200   109.66664045   305.47056585
 O     34  29  24     1.422461089335   110.20539159   169.73784085
 C     35  34  29     1.345365334074   119.29729096    94.94119609
 C     36  35  34     1.497407235791   110.89501541   182.13225110
 O     36  35  34     1.205658817867   123.05381447     0.96476657
 C     34  29  24     1.530503121300   109.72419193    53.11232157
 C     39  34  29     1.513764504167   113.02502560   185.23293766
 O     40  39  34     1.423343209685   110.18657861    58.33916845
 C     41  40  39     1.342822100419   118.92286230   102.46881169
 C     42  41  40     1.499621368885   110.90104902   186.33314378
 O     42  41  40     1.205785952939   123.56396474     6.46882428
 O     23  22  21     1.399280787698   111.79542867    87.96301179
 C     21  16  11     1.530969340738   110.34735425    49.52749962
 C     46  21  16     1.516767588536   112.49608518   190.85085842
 O     47  46  21     1.424388570000   110.98437843   199.01232877
 C     48  47  46     1.342664893777   117.48657314    85.96736556
 C     49  48  47     1.497467069581   111.68942792   184.58187617
 O     49  48  47     1.208354223268   122.73425484     3.05995183
 O     10   9   8     1.399138261944   114.59150102    68.94043906
 C      8   7   6     1.545203872220   109.32230450    32.49158514
 O     53   8   7     1.426341952432   108.43228043    28.31179532
 C     54  53   8     1.395326948537   101.50087188   277.21583341
 O     55  54  53     1.404430942184   105.13148132   310.51326450
 C     56  55  54     1.428303501430   104.50355527    39.24135510
 H      3   2   1     1.015128462347   120.08185389   178.47297878
 H      3   2   1     1.011258028070   119.42345924     1.02478315
 H      4   2   1     1.018599058291   116.68906452   352.90830862
 H      7   6   5     1.096979239150   110.52172289     6.37320059
 H      7   6   5     1.103346572400   107.98715261   248.33633296
 H      8   7   6     1.100860324513   110.20100319   272.30651727
 H     10   9   8     1.098104273811   107.30134962   311.94396228
 H     11  10   9     1.101423543530   106.99781707   168.23612165
 H     14  13  12     1.100019747565   108.63036972    67.12922206
 H     14  13  12     1.095105947887   109.89408309   187.22482723
 H     14  13  12     1.098297669759   110.11278182   309.44546201
 H     16  11  10     1.100489145131   109.86868118    69.00244145
 H     19  18  17     1.100228963685   109.27004553    63.43283464
 H     19  18  17     1.095362204514   109.99310766   184.24681128
 H     19  18  17     1.098713946457   109.76165056   305.85862887
 H     21  16  11     1.104486850266   109.34204335   289.06782276
 H     23  22  21     1.100247627709   110.87640252   330.03696937
 H     24  23  22     1.099138986402   107.67689102   173.60880798
 H     27  26  25     1.100662867699   108.00991063   286.95856294
 H     27  26  25     1.097595594142   110.67166871    44.79631244
 H     27  26  25     1.095397565727   109.75533045   167.64753802
 H     29  24  23     1.100084092578   110.29267594    66.26393274
 H     32  31  30     1.098105363820   110.23486877   311.55654847
 H     32  31  30     1.100071102995   108.23115517    69.33138191
 H     32  31  30     1.095160240868   109.94453770   189.10139882
 H     34  29  24     1.099882922363   109.78233044   290.95836696
 H     37  36  35     1.098309123192   110.17164632   307.87860084
 H     37  36  35     1.099850271308   108.37723221    65.58406445
 H     37  36  35     1.095105172494   109.95346244   185.68058615
 H     39  34  29     1.104187130122   107.32122430    66.63182145
 H     40  39  34     1.097759157002   109.67963702   179.77632075
 H     40  39  34     1.097361264522   109.79717864   300.32915580
 H     43  42  41     1.099874759675   108.95891194    65.99797655
 H     43  42  41     1.095385666408   109.95725868   186.44417117
 H     43  42  41     1.098560483682   110.01780602   308.24298216
 H     46  21  16     1.106210068066   107.27892680    70.11803166
 H     47  46  21     1.097213183555   109.27868063    82.20243305
 H     47  46  21     1.094506343800   110.70954773   321.75687290
 H     50  49  48     1.095515537589   109.81603821   194.46140446
 H     50  49  48     1.101463793551   108.13102474    75.39241081
 H     50  49  48     1.097572078675   110.65221469   317.23202720
 H     53   8   7     1.093295882610   111.63856076   148.21786728
 H     55  54  53     1.100442633504   110.31581655   191.79782671
 H     57  56  55     1.101503734621   110.96933830   107.69014167
 H     57  56  55     1.098397400840   108.59700284   227.80625222

---------------------------
INTERNAL COORDINATES (A.U.)
---------------------------
 S      0   0   0     0.000000000000     0.00000000     0.00000000
 C      1   0   0     3.183323853258     0.00000000     0.00000000
 N      2   1   0     2.512613814835   124.15244275     0.00000000
 N      2   1   3     2.577266642548   119.49271885   180.63694498
 N      4   2   1     2.561252501960   120.17746691   185.03757243
 C      5   4   2     2.409858263867   118.83468222   182.48411611
 C      6   5   4     2.835933894018   120.65550944   183.88623379
 C      7   6   5     2.920167591914   109.59205115   129.73525922
 S      8   7   6     3.443730366658   107.17753237   155.75847332
 C      9   8   7     3.454166074639    99.84156787   162.82421497
 C     10   9   8     2.905060651470   111.00604886   192.69867164
 O     11  10   9     2.674819104779   112.71320895    47.53926778
 C     12  11  10     2.544505452400   118.00575459    77.06293659
 C     13  12  11     2.828477530798   111.12490781   180.57943621
 O     13  12  11     2.277725653450   122.48031053   359.70693621
 C     11  10   9     2.872310544887   110.69170302   287.66569496
 O     16  11  10     2.685983041040   109.39454363   188.60784655
 C     17  16  11     2.542601846262   118.94946436   255.45432013
 C     18  17  16     2.830409352836   110.94584455   182.08429307
 O     18  17  16     2.278406821444   123.16444176     1.35462206
 C     16  11  10     2.879691299919   111.98111121   307.89443383
 O     21  16  11     2.670403491573   108.60753435   168.08810837
 C     22  21  16     2.635971339401   117.15838516   101.21394109
 C     23  22  21     2.885080579338   109.16002552   208.80124308
 O     24  23  22     2.677076261106   110.65162611    54.07005231
 C     25  24  23     2.557137707481   117.94764945   135.77948068
 C     26  25  24     2.828264209862   111.16359349   166.64544782
 O     26  25  24     2.275624683341   123.04498265   347.52280314
 C     24  23  22     2.874518399878   111.10941006   293.34644619
 O     29  24  23     2.687015808719   106.61733826   185.08228964
 C     30  29  24     2.541837940624   119.24762388   217.29300603
 C     31  30  29     2.829542310310   110.87623736   180.08051638
 O     31  30  29     2.278646592610   123.08566808   358.83009794
 C     29  24  23     2.877534180075   109.66664045   305.47056585
 O     34  29  24     2.688061895002   110.20539159   169.73784085
 C     35  34  29     2.542372031472   119.29729096    94.94119609
 C     36  35  34     2.829689586597   110.89501541   182.13225110
 O     36  35  34     2.278364976716   123.05381447     0.96476657
 C     34  29  24     2.892231746369   109.72419193    53.11232157
 C     39  34  29     2.860600344126   113.02502560   185.23293766
 O     40  39  34     2.689728860881   110.18657861    58.33916845
 C     41  40  39     2.537566016369   118.92286230   102.46881169
 C     42  41  40     2.833873691769   110.90104902   186.33314378
 O     42  41  40     2.278605227184   123.56396474     6.46882428
 O     23  22  21     2.644257473207   111.79542867    87.96301179
 C     21  16  11     2.893112773425   110.34735425    49.52749962
 C     46  21  16     2.866275351141   112.49608518   190.85085842
 O     47  46  21     2.691704305588   110.98437843   199.01232877
 C     48  47  46     2.537268938868   117.48657314    85.96736556
 C     49  48  47     2.829802656075   111.68942792   184.58187617
 O     49  48  47     2.283458554744   122.73425484     3.05995183
 O     10   9   8     2.643988138564   114.59150102    68.94043906
 C      8   7   6     2.920012139570   109.32230450    32.49158514
 O     53   8   7     2.695395663419   108.43228043    28.31179532
 C     54  53   8     2.636785800014   101.50087188   277.21583341
 O     55  54  53     2.653989854734   105.13148132   310.51326450
 C     56  55  54     2.699102453824   104.50355527    39.24135510
 H      3   2   1     1.918314784584   120.08185389   178.47297878
 H      3   2   1     1.911000723782   119.42345924     1.02478315
 H      4   2   1     1.924873260440   116.68906452   352.90830862
 H      7   6   5     2.072990336590   110.52172289     6.37320059
 H      7   6   5     2.085022852636   107.98715261   248.33633296
 H      8   7   6     2.080324525029   110.20100319   272.30651727
 H     10   9   8     2.075116343992   107.30134962   311.94396228
 H     11  10   9     2.081388854725   106.99781707   168.23612165
 H     14  13  12     2.078736064803   108.63036972    67.12922206
 H     14  13  12     2.069450329134   109.89408309   187.22482723
 H     14  13  12     2.075481809369   110.11278182   309.44546201
 H     16  11  10     2.079623097650   109.86868118    69.00244145
 H     19  18  17     2.079131425973   109.27004553    63.43283464
 H     19  18  17     2.069934583980   109.99310766   184.24681128
 H     19  18  17     2.076268458324   109.76165056   305.85862887
 H     21  16  11     2.087177665520   109.34204335   289.06782276
 H     23  22  21     2.079166695866   110.87640252   330.03696937
 H     24  23  22     2.077071667416   107.67689102   173.60880798
 H     27  26  25     2.079951385728   108.00991063   286.95856294
 H     27  26  25     2.074155078727   110.67166871    44.79631244
 H     27  26  25     2.070001406988   109.75533045   167.64753802
 H     29  24  23     2.078857659256   110.29267594    66.26393274
 H     32  31  30     2.075118403810   110.23486877   311.55654847
 H     32  31  30     2.078833112502   108.23115517    69.33138191
 H     32  31  30     2.069552927999   109.94453770   189.10139882
 H     34  29  24     2.078477502643   109.78233044   290.95836696
 H     37  36  35     2.075503453219   110.17164632   307.87860084
 H     37  36  35     2.078415801092   108.37723221    65.58406445
 H     37  36  35     2.069448863854   109.95346244   185.68058615
 H     39  34  29     2.086611276531   107.32122430    66.63182145
 H     40  39  34     2.074464167737   109.67963702   179.77632075
 H     40  39  34     2.073712259920   109.79717864   300.32915580
 H     43  42  41     2.078462077399   108.95891194    65.99797655
 H     43  42  41     2.069978920533   109.95725868   186.44417117
 H     43  42  41     2.075978455708   110.01780602   308.24298216
 H     46  21  16     2.090434075231   107.27892680    70.11803166
 H     47  46  21     2.073432427447   109.27868063    82.20243305
 H     47  46  21     2.068317241621   110.70954773   321.75687290
 H     50  49  48     2.070224341498   109.81603821   194.46140446
 H     50  49  48     2.081464916241   108.13102474    75.39241081
 H     50  49  48     2.074110640935   110.65221469   317.23202720
 H     53   8   7     2.066029801477   111.63856076   148.21786728
 H     55  54  53     2.079535203414   110.31581655   191.79782671
 H     57  56  55     2.081540393926   110.96933830   107.69014167
 H     57  56  55     2.075670273799   108.59700284   227.80625222

---------------------
BASIS SET INFORMATION
---------------------
There are 5 groups of distinct atoms

 Group   1 Type S   : 10s7p1d contracted to 4s3p1d pattern {5311/511/1}
 Group   2 Type C   : 7s4p1d contracted to 3s2p1d pattern {511/31/1}
 Group   3 Type N   : 7s4p1d contracted to 3s2p1d pattern {511/31/1}
 Group   4 Type O   : 7s4p1d contracted to 3s2p1d pattern {511/31/1}
 Group   5 Type H   : 4s1p contracted to 2s1p pattern {31/1}

Atom   0S    basis set group =>   1
Atom   1C    basis set group =>   2
Atom   2N    basis set group =>   3
Atom   3N    basis set group =>   3
Atom   4N    basis set group =>   3
Atom   5C    basis set group =>   2
Atom   6C    basis set group =>   2
Atom   7C    basis set group =>   2
Atom   8S    basis set group =>   1
Atom   9C    basis set group =>   2
Atom  10C    basis set group =>   2
Atom  11O    basis set group =>   4
Atom  12C    basis set group =>   2
Atom  13C    basis set group =>   2
Atom  14O    basis set group =>   4
Atom  15C    basis set group =>   2
Atom  16O    basis set group =>   4
Atom  17C    basis set group =>   2
Atom  18C    basis set group =>   2
Atom  19O    basis set group =>   4
Atom  20C    basis set group =>   2
Atom  21O    basis set group =>   4
Atom  22C    basis set group =>   2
Atom  23C    basis set group =>   2
Atom  24O    basis set group =>   4
Atom  25C    basis set group =>   2
Atom  26C    basis set group =>   2
Atom  27O    basis set group =>   4
Atom  28C    basis set group =>   2
Atom  29O    basis set group =>   4
Atom  30C    basis set group =>   2
Atom  31C    basis set group =>   2
Atom  32O    basis set group =>   4
Atom  33C    basis set group =>   2
Atom  34O    basis set group =>   4
Atom  35C    basis set group =>   2
Atom  36C    basis set group =>   2
Atom  37O    basis set group =>   4
Atom  38C    basis set group =>   2
Atom  39C    basis set group =>   2
Atom  40O    basis set group =>   4
Atom  41C    basis set group =>   2
Atom  42C    basis set group =>   2
Atom  43O    basis set group =>   4
Atom  44O    basis set group =>   4
Atom  45C    basis set group =>   2
[...]
 49 C      6.0277     6.0000    -0.0277     3.8724     3.8724    -0.0000
 50 O      8.2813     8.0000    -0.2813     2.2153     2.2153    -0.0000
 51 O      8.3924     8.0000    -0.3924     2.0426     2.0426    -0.0000
 52 C      5.9617     6.0000     0.0383     3.8910     3.8910    -0.0000
 53 O      8.3722     8.0000    -0.3722     2.0872     2.0872     0.0000
 54 C      5.6875     6.0000     0.3125     3.9437     3.9437    -0.0000
 55 O      8.4111     8.0000    -0.4111     2.0467     2.0467    -0.0000
 56 C      5.7468     6.0000     0.2532     3.8697     3.8697    -0.0000
 57 H      0.8247     1.0000     0.1753     1.0155     1.0155    -0.0000
 58 H      0.8209     1.0000     0.1791     0.9958     0.9958     0.0000
 59 H      0.8350     1.0000     0.1650     1.0292     1.0292     0.0000
 60 H      0.9363     1.0000     0.0637     1.0067     1.0067    -0.0000
 61 H      0.9225     1.0000     0.0775     0.9943     0.9943    -0.0000
 62 H      0.8983     1.0000     0.1017     0.9790     0.9790    -0.0000
 63 H      0.9097     1.0000     0.0903     1.0079     1.0079    -0.0000
 64 H      0.9290     1.0000     0.0710     1.0141     1.0141    -0.0000
 65 H      0.9076     1.0000     0.0924     0.9994     0.9994     0.0000
 66 H      0.9279     1.0000     0.0721     1.0057     1.0057    -0.0000
 67 H      0.9138     1.0000     0.0862     0.9988     0.9988    -0.0000
 68 H      0.9473     1.0000     0.0527     1.0523     1.0523    -0.0000
 69 H      0.9061     1.0000     0.0939     1.0036     1.0036    -0.0000
 70 H      0.9263     1.0000     0.0737     1.0045     1.0045    -0.0000
 71 H      0.9090     1.0000     0.0910     0.9988     0.9988    -0.0000
 72 H      0.9339     1.0000     0.0661     0.9956     0.9956    -0.0000
 73 H      0.9338     1.0000     0.0662     1.0036     1.0036     0.0000
 74 H      0.9342     1.0000     0.0658     1.0357     1.0357    -0.0000
 75 H      0.9082     1.0000     0.0918     0.9981     0.9981     0.0000
 76 H      0.9354     1.0000     0.0646     1.0500     1.0500    -0.0000
 77 H      0.9313     1.0000     0.0687     1.0057     1.0057    -0.0000
 78 H      0.9484     1.0000     0.0516     1.0457     1.0457     0.0000
 79 H      0.9182     1.0000     0.0818     1.0001     1.0001    -0.0000
 80 H      0.9146     1.0000     0.0854     1.0072     1.0072    -0.0000
 81 H      0.9294     1.0000     0.0706     1.0060     1.0060    -0.0000
 82 H      0.9539     1.0000     0.0461     1.0433     1.0433     0.0000
 83 H      0.9153     1.0000     0.0847     0.9982     0.9982     0.0000
 84 H      0.9163     1.0000     0.0837     1.0087     1.0087     0.0000
 85 H      0.9300     1.0000     0.0700     1.0062     1.0062    -0.0000
 86 H      0.9631     1.0000     0.0369     1.0592     1.0592     0.0000
 87 H      0.9422     1.0000     0.0578     1.0348     1.0348    -0.0000
 88 H      0.9314     1.0000     0.0686     1.0002     1.0002    -0.0000
 89 H      0.9108     1.0000     0.0892     0.9978     0.9978    -0.0000
 90 H      0.9332     1.0000     0.0668     1.0065     1.0065    -0.0000
 91 H      0.9168     1.0000     0.0832     0.9987     0.9987    -0.0000
 92 H      0.9596     1.0000     0.0404     1.0333     1.0333    -0.0000
 93 H      0.9322     1.0000     0.0678     1.0060     1.0060    -0.0000
 94 H      0.9494     1.0000     0.0506     1.0247     1.0247     0.0000
 95 H      0.9291     1.0000     0.0709     1.0061     1.0061    -0.0000
 96 H      0.9238     1.0000     0.0762     1.0494     1.0494    -0.0000
 97 H      0.9175     1.0000     0.0825     0.9988     0.9988    -0.0000
 98 H      0.9524     1.0000     0.0476     1.0489     1.0489    -0.0000
 99 H      0.9032     1.0000     0.0968     0.9896     0.9896     0.0000
100 H      0.9334     1.0000     0.0666     0.9923     0.9923    -0.0000
101 H      0.9332     1.0000     0.0668     0.9896     0.9896    -0.0000

  Mayer bond orders larger than 0.100000
B(  0-S ,  1-C ) :   1.4315 B(  1-C ,  2-N ) :   1.4076 B(  1-C ,  3-N ) :   1.1761 
B(  2-N , 57-H ) :   0.9115 B(  2-N , 58-H ) :   0.9289 B(  3-N ,  4-N ) :   0.9942 
B(  3-N , 59-H ) :   0.8982 B(  4-N ,  5-C ) :   1.9623 B(  5-C ,  6-C ) :   1.0551 
B(  5-C , 54-C ) :   0.9275 B(  6-C ,  7-C ) :   0.9871 B(  6-C , 60-H ) :   0.9353 
B(  6-C , 61-H ) :   0.9136 B(  7-C ,  8-S ) :   1.0129 B(  7-C , 52-C ) :   0.9418 
B(  7-C , 62-H ) :   0.9159 B(  8-S ,  9-C ) :   1.0140 B(  9-C , 10-C ) :   0.9836 
B(  9-C , 51-O ) :   0.9803 B(  9-C , 63-H ) :   0.9223 B( 10-C , 11-O ) :   0.9470 
B( 10-C , 15-C ) :   1.0086 B( 10-C , 64-H ) :   0.9107 B( 11-O , 12-C ) :   1.1043 
B( 12-C , 13-C ) :   1.0410 B( 12-C , 14-O ) :   2.0249 B( 13-C , 65-H ) :   0.9454 
B( 13-C , 66-H ) :   0.9612 B( 13-C , 67-H ) :   0.9493 B( 15-C , 16-O ) :   0.9284 
B( 15-C , 20-C ) :   1.0186 B( 15-C , 68-H ) :   0.9045 B( 16-O , 17-C ) :   1.1002 
B( 17-C , 18-C ) :   1.0383 B( 17-C , 19-O ) :   1.9828 B( 18-C , 69-H ) :   0.9424 
B( 18-C , 70-H ) :   0.9617 B( 18-C , 71-H ) :   0.9467 B( 20-C , 21-O ) :   0.9569 
B( 20-C , 45-C ) :   1.0083 B( 20-C , 72-H ) :   0.9061 B( 21-O , 22-C ) :   0.9878 
B( 22-C , 23-C ) :   1.0123 B( 22-C , 44-O ) :   1.0194 B( 22-C , 73-H ) :   0.9257 
B( 23-C , 24-O ) :   0.9239 B( 23-C , 28-C ) :   1.0103 B( 23-C , 74-H ) :   0.9055 
B( 24-O , 25-C ) :   1.0821 B( 25-C , 26-C ) :   1.0405 B( 25-C , 27-O ) :   2.0385 
B( 26-C , 75-H ) :   0.9419 B( 26-C , 76-H ) :   0.9352 B( 26-C , 77-H ) :   0.9594 
B( 28-C , 29-O ) :   0.9394 B( 28-C , 33-C ) :   1.0589 B( 28-C , 78-H ) :   0.9000 
B( 29-O , 30-C ) :   1.0997 B( 30-C , 31-C ) :   1.0398 B( 30-C , 32-O ) :   2.0151 
B( 31-C , 79-H ) :   0.9490 B( 31-C , 80-H ) :   0.9423 B( 31-C , 81-H ) :   0.9613 
B( 33-C , 34-O ) :   0.9121 B( 33-C , 38-C ) :   1.0070 B( 33-C , 82-H ) :   0.8962 
B( 34-O , 35-C ) :   1.1016 B( 35-C , 36-C ) :   1.0399 B( 35-C , 37-O ) :   2.0154 
B( 36-C , 83-H ) :   0.9479 B( 36-C , 84-H ) :   0.9438 B( 36-C , 85-H ) :   0.9617 
B( 38-C , 39-C ) :   1.0506 B( 38-C , 44-O ) :   0.9394 B( 38-C , 86-H ) :   0.8834 
B( 39-C , 40-O ) :   0.8958 B( 39-C , 87-H ) :   0.9313 B( 39-C , 88-H ) :   0.9461 
B( 40-O , 41-C ) :   1.1335 B( 41-C , 42-C ) :   1.0313 B( 41-C , 43-O ) :   2.0379 
B( 42-C , 89-H ) :   0.9495 B( 42-C , 90-H ) :   0.9633 B( 42-C , 91-H ) :   0.9509 
B( 45-C , 46-C ) :   1.0378 B( 45-C , 51-O ) :   0.9161 B( 45-C , 92-H ) :   0.9063 
B( 46-C , 47-O ) :   0.9180 B( 46-C , 93-H ) :   0.9306 B( 46-C , 94-H ) :   0.9540 
B( 47-O , 48-C ) :   1.1260 B( 48-C , 49-C ) :   1.0359 B( 48-C , 50-O ) :   1.9888 
B( 49-C , 95-H ) :   0.9596 B( 49-C , 96-H ) :   0.9323 B( 49-C , 97-H ) :   0.9484 
B( 52-C , 53-O ) :   0.9441 B( 52-C , 56-C ) :   1.0180 B( 52-C , 98-H ) :   0.9296 
B( 53-O , 54-C ) :   1.0324 B( 54-C , 55-O ) :   1.0072 B( 54-C , 99-H ) :   0.9275 
B( 55-O , 56-C ) :   0.9438 B( 56-C ,100-H ) :   0.9553 B( 56-C ,101-H ) :   0.9485 


-------
TIMINGS
-------

Total SCF time: 0 days 0 hours 3 min 6 sec 

Total time                  ....     186.805 sec
Sum of individual times     ....     179.835 sec  ( 96.3%)

SCF preparation             ....       3.181 sec  (  1.7%)
Fock matrix formation       ....     174.146 sec  ( 93.2%)
  Startup                   ....       0.057 sec  (  0.0% of F)
  Split-RI-J                ....       9.526 sec  (  5.5% of F)
  Chain of spheres X        ....     148.997 sec  ( 85.6% of F)
  XC integration            ....       7.156 sec  (  4.1% of F)
    XC Preparation          ....       0.000 sec  (  0.0% of XC)
    Basis function eval.    ....       2.435 sec  ( 34.0% of XC)
    Density eval.           ....       2.514 sec  ( 35.1% of XC)
    XC-Functional eval.     ....       0.324 sec  (  4.5% of XC)
    XC-Potential eval.      ....       1.031 sec  ( 14.4% of XC)
  CPCM terms                ....      14.609 sec  (  8.4% of F)
Diagonalization             ....       0.000 sec  (  0.0%)
Density matrix formation    ....       0.247 sec  (  0.1%)
Total Energy calculation    ....       0.141 sec  (  0.1%)
Population analysis         ....       0.235 sec  (  0.1%)
Orbital Transformation      ....       0.287 sec  (  0.2%)
Orbital Orthonormalization  ....       0.000 sec  (  0.0%)
DIIS solution               ....       0.315 sec  (  0.2%)
SOSCF solution              ....       1.281 sec  (  0.7%)
Finished LeanSCF after 187.8 sec

Maximum memory used throughout the entire LEANSCF-calculation: 188.4 MB


-------------------------------------------------------------------------------
                          DFT DISPERSION CORRECTION                            
                                                                               
                              DFTD3 V3.1  Rev 1                                
                              USING zero damping                               
-------------------------------------------------------------------------------
The omegaB97X-D3 functional is recognized. Fit by Chai et al.
Active option DFTDOPT                   ...         3   

molecular C6(AA) [au] = 104885.881311 


            DFT-D V3
 parameters
 s6 scaling factor         :     1.0000 
 rs6 scaling factor        :     1.2810 
 s8 scaling factor         :     1.0000 
 rs8 scaling factor        :     1.0940 
 Damping factor alpha6     :    14.0000 
 Damping factor alpha8     :    16.0000 
 ad hoc parameters k1-k3   :    16.0000     1.3333    -4.0000 

 Edisp/kcal,au: -45.827555275313  -0.073030850180 
 E6   /kcal   : -22.644430937 
 E8   /kcal   : -23.183124338 
 % E8         :  50.587739623 

-------------------------   ----------------
Dispersion correction           -0.073030850
-------------------------   ----------------


-------------------------   --------------------
FINAL SINGLE POINT ENERGY     -3671.585363638654
-------------------------   --------------------

                                *** OPTIMIZATION RUN DONE ***



           ************************************************************
           *        Program running with 8 parallel MPI-processes     *
           *              working on a common directory               *
           ************************************************************

------------------------------------------------------------------------------
                              ORCA PROPERTY CALCULATIONS
------------------------------------------------------------------------------

GBWName                                 ... ../inputs/compound_08_wb97xd3_def2svp_cpcm_water_restart_cycle80_carthess_opt.gbw
Number of atoms                         ...    102
Number of basis functions               ...   1031
Max core memory                         ...   3000 MB

Electric properties:
Dipole moment                           ... YES
Quadrupole moment                       ...  NO
Static polarizability (Dipole/Dipole)   ...  NO
Static polarizability (Dipole/Quad.)    ...  NO
Static polarizability (Quad./Quad.)     ...  NO
Static polarizability (Velocity)        ...  NO
Static hyperpolarizability              ...  NO

Atomic electric properties:
Dipole moment                           ...  NO
Quadrupole moment                       ...  NO
Static polarizability                   ...  NO

Choice of electric origin               ... Center of mass
Position of electric origin             ...     0.706169     0.143782     0.087065

General magnetic properties:
Magnetizability                         ...  NO

EPR properties:
g-Tensor (aka g-matrix)                 ...  NO
Zero-Field splitting spin-orbit         ...  NO
Zero-field splitting spin-spin          ...  NO
Hyperfine couplings                     ...  NO (   0 nuclei)
Quadrupole couplings                    ...  NO (   0 nuclei)
Contact density                         ...  NO (   0 nuclei)

NMR properties:
Chemical shifts                         ...  NO (   0 nuclei)
Spin-rotation constants                 ...  NO (   0 nuclei)
Spin-spin couplings                     ...  NO (   0 nuclei,    0 pairs)

Choice of magnetic origin               ... GIAO
Position of magnetic origin             ...     0.000000     0.000000     0.000000

Properties with geometric perturbations:
SCF Hessian                             ...  NO
IR spectrum                             ...  NO
VCD spectrum                            ...  NO
X-ray spectroscopy properties:
SCF XES/XAS/RIXS spectra                ...  NO

SCF SOC stabilization energy            ...  NO
Diagonal Born-Oppenheimer correction    ...  NO

-------------
DIPOLE MOMENT
-------------

Method             : SCF
Type of density    : Electron Density
Multiplicity       :   1
Irrep              :   0
Energy             : -3671.5123327884734863 Eh
Basis              : AO
                                X                 Y                 Z
Electronic contribution:     22.551724170       2.157123684       4.023513556
Nuclear contribution   :    -23.695621652      -4.831478607      -4.799363401
                        -----------------------------------------
Total Dipole Moment    :     -1.143897482      -2.674354923      -0.775849845
                        -----------------------------------------
Magnitude (a.u.)       :      3.010418357
Magnitude (Debye)      :      7.651875359



--------------------
Rotational spectrum 
--------------------
 
Rotational constants in cm-1:             0.001984             0.000779             0.000684 
Rotational constants in MHz :            59.481664            23.365409            20.519499 

Dipole components along the rotational axes: 
x,y,z [a.u.] :    -1.347508    -2.676334     0.289957 
x,y,z [Debye]:    -3.425094    -6.802701     0.737013 

 

Dipole moment calculation done in   0.0 sec 

Maximum memory used throughout the entire PROP-calculation: 100.1 MB

--------------------------------
SUGGESTED CITATIONS FOR THIS RUN
--------------------------------

Below you find a list of papers that are relevant to this ORCA run
We neither can nor want to force you to cite these papers, but we appreciate if you do
You receive ORCA, which is the product of decades of hard work by many enthusiastic individuals, for free
The only thing we kindly ask in return is that you cite our papers,
We deeply appreciate it, if you show your appreciation for ORCA by not just citing the generic ORCA reference.

Please note that relegating all ORCA citations to the supporting information does *not* help us.
SI sections are not indexed - citations you put there will not count into any citation statistics
But we need these citations in order to attract the funding resources that allow us to do what we are doing

Therefore, if you are a happy ORCA user, please consider citing a few of the papers listed below in the main body of your paper

In addition to the list printed below, the program has created the file ../inputs/compound_08_wb97xd3_def2svp_cpcm_water_restart_cycle80_carthess_opt.bibtex that contains the list in bibtex format
You can import this file easily into all common literature databanks and citation aid programs

It goes without saying that in many instances, there are alternative algorithms to achieve similar
results as the ones you have gotten from ORCA. It is, of course, also the case that in some instances
ORCA just re-implements algorithms worked out by others. We are fully aware of that and we are also
fully appreciative of our colleagues work. Hence this citation list should not be read as indicating
that the listed papers, which are focused on our own work, are the only ones worth citing. It simply
meant to make it easier for users to cite ORCA specific papers. It is not a substitute for doing your
own literature research and citing the relevant literature in a scientifically appropriate manner.

List of essential papers. We consider these as the minimum necessary citations

  1. Neese, F.
     Software update: the ORCA program system, version 6.0
     WIRES Comput. Molec. Sci. 2025 15(1), e70019
     doi.org/10.1002/wcms.70019

List of papers to cite with high priority. The work reported in these papers was absolutely
necessary for this run to complete.
Our perspective: the developers of density functionals and basis sets usually get cited in chemistry papers
Good! But without the algorithms to do something with them, the functionals or basis sets would not do anything.
Hence, in our opinion, the algorithm design and method developments papers are equally worthy of getting cited

  1. Neese, F.
     An improvement of the resolution of the identity approximation for the formation of the Coulomb matrix
     J. Comp. Chem. 2003 24(14), 1740-1747
     doi.org/10.1002/jcc.10318
  2. Neese, F.; Wennmohs, F.; Hansen, A.; Becker, U.
     Efficient, approximate and parallel Hartree-Fock and hybrid DFT calculations. A 'chain-of-spheres' algorithm for the Hartree-Fock exchange
     Chem. Phys. 2009 356(1-3), 98-109
     doi.org/10.1016/j.chemphys.2008.10.036
  3. Grimme, S.; Antony, J.; Ehrlich, S.; Krieg, H.
     A consistent and accurate ab initio parametrization of density functional dispersion correction (DFT-D) for the 94 elements H-Pu
     J. Chem. Phys. 2010 132 , 154104
     doi.org/10.1063/1.3382344
  4. Garcia-Rates, M.; Neese, F.
     Effect of the Solute Cavity on the Solvation Energy and its Derivatives within the Framework of the Gaussian Charge Scheme
     J. Comput. Chem. 2020 41 , 922-939
     doi.org/10.1002/jcc.26139
  5. Helmich-Paris, B.; de Souza, B.; Neese, F.; Izsák, R.
     An improved chain of spheres for exchange algorithm
     J. Chem. Phys. 2021 155(10), 104109
     doi.org/10.1063/5.0058766
  6. Neese, F.
     The SHARK Integral Generation and Digestion System
     J. Comp. Chem. 2022 44(3), 381
     doi.org/10.1002/jcc.26942

List of suggested additional citations. These are papers that are important in the 'surrounding' of 
of this run, or papers that preceded the highly important papers. If you like your results we are grateful for a citation.

  1. Izsak, R.; Neese, F.
     An overlap fitted chain of spheres exchange method
     J. Chem. Phys. 2011 135 , 144105
     doi.org/10.1063/1.3646921
  2. Izsak, R.; Hansen, A.; Neese, F.
     The resolution of identity and chain of spheres approximations for the LPNO-CCSD singles Fock term
     Molec. Phys. 2012 110 , 2413-2417
     doi.org/10.1080/00268976.2012.687466
  3. Neese, F.
     The ORCA program system
     WIRES Comput. Molec. Sci. 2012 2(1), 73-78
     doi.org/10.1002/wcms.81
  4. Izsak, R.; Neese, F.; Klopper, W.
     Robust fitting techniques in the chain of spheres approximation to the Fock exchange: The role of the complementary space
     J. Chem. Phys. 2013 139 , 
     doi.org/10.1063/1.4819264
  5. Neese, F.
     Software update: the ORCA program system, version 4.0
     WIRES Comput. Molec. Sci. 2018 8(1), 1-6
     doi.org/10.1002/wcms.1327
  6. Neese, F.; Wennmohs, F.; Becker, U.; Riplinger, C.
     The ORCA quantum chemistry program package
     J. Chem. Phys. 2020 152(22), 224108
     doi.org/10.1063/5.0004608
  7. Neese, F.
     Software update: The ORCA program system—Version 5.0
     WIRES Comput. Molec. Sci. 2022 12(1), e1606
     doi.org/10.1002/wcms.1606

List of optional additional citations

  1. Neese, F.
     Approximate second-order SCF convergence for spin unrestricted wavefunctions
     Chem. Phys. Lett. 2000 325(1-3), 93-98
     doi.org/10.1016/s0009-2614(00)00662-x

Timings for individual modules:

Sum of individual times          ...      613.421 sec (=  10.224 min)
Startup calculation              ...       15.616 sec (=   0.260 min)   2.5 %
SCF iterations                   ...      513.410 sec (=   8.557 min)  83.7 %
Property calculations            ...        0.840 sec (=   0.014 min)   0.1 %
SCF Gradient evaluation          ...       83.115 sec (=   1.385 min)  13.5 %
Geometry relaxation              ...        0.439 sec (=   0.007 min)   0.1 %
                             ****ORCA TERMINATED NORMALLY****
TOTAL RUN TIME: 0 days 0 hours 10 minutes 14 seconds 738 msec
